# vtk DataFile Version 4.0
vtk output
ASCII
DATASET UNSTRUCTURED_GRID
POINTS 792 float
0.0000000e+00 0.0000000e+00 0.0000000e+00 
4.5060639e+00 2.1011675e+01 0.0000000e+00 
8.8644762e+00 4.2217041e+01 0.0000000e+00 
1.3188034e+01 6.3527512e+01 0.0000000e+00 
1.7513653e+01 8.4895477e+01 0.0000000e+00 
2.1853380e+01 1.0629664e+02 0.0000000e+00 
2.6211689e+01 1.2771495e+02 0.0000000e+00 
3.0583815e+01 1.4913773e+02 0.0000000e+00 
3.0643528e+01 -7.0270281e+00 0.0000000e+00 
3.5134800e+01 1.4461997e+01 0.0000000e+00 
3.9489079e+01 3.5867283e+01 0.0000000e+00 
4.3810081e+01 5.7253189e+01 0.0000000e+00 
4.8130276e+01 7.8645020e+01 0.0000000e+00 
5.2464897e+01 1.0004852e+02 0.0000000e+00 
5.6820530e+01 1.2146283e+02 0.0000000e+00 
6.1197521e+01 1.4288406e+02 0.0000000e+00 
6.1310371e+01 -1.3396749e+01 0.0000000e+00 
6.5689705e+01 8.0227757e+00 0.0000000e+00 
7.0059715e+01 2.9466528e+01 0.0000000e+00 
7.4394012e+01 5.0899761e+01 0.0000000e+00 
7.8719711e+01 7.2324989e+01 0.0000000e+00 
8.3054428e+01 9.3748756e+01 0.0000000e+00 
8.7409683e+01 1.1517474e+02 0.0000000e+00 
9.1795532e+01 1.3660258e+02 0.0000000e+00 
9.1955505e+01 -1.9737339e+01 0.0000000e+00 
9.6296066e+01 1.6901263e+00 0.0000000e+00 
1.0063073e+02 2.3122152e+01 0.0000000e+00 
1.0495903e+02 4.4560162e+01 0.0000000e+00 
1.0928352e+02 6.5997490e+01 0.0000000e+00 
1.1361625e+02 8.7433281e+01 0.0000000e+00 
1.1796944e+02 1.0886850e+02 0.0000000e+00 
1.2235619e+02 1.3030391e+02 0.0000000e+00 
1.2259975e+02 -2.6035328e+01 0.0000000e+00 
1.2690897e+02 -4.6121211e+00 0.0000000e+00 
1.3121616e+02 1.6818249e+01 0.0000000e+00 
1.3552269e+02 3.8253311e+01 0.0000000e+00 
1.3983342e+02 5.9691643e+01 0.0000000e+00 
1.4415544e+02 8.1131317e+01 0.0000000e+00 
1.4849849e+02 1.0257178e+02 0.0000000e+00 
1.5287352e+02 1.2401371e+02 0.0000000e+00 
1.5324686e+02 -3.2301334e+01 0.0000000e+00 
1.5752657e+02 -1.0879375e+01 0.0000000e+00 
1.6180481e+02 1.0548464e+01 0.0000000e+00 
1.6608554e+02 3.1981798e+01 0.0000000e+00 
1.7037363e+02 5.3419422e+01 0.0000000e+00 
1.7467549e+02 7.4860443e+01 0.0000000e+00 
1.7899869e+02 9.6304413e+01 0.0000000e+00 
1.8335138e+02 1.1775183e+02 0.0000000e+00 
1.8389874e+02 -3.8528385e+01 0.0000000e+00 
1.8814682e+02 -1.7107834e+01 0.0000000e+00 
1.9239366e+02 4.3187299e+00 0.0000000e+00 
1.9664404e+02 2.5751019e+01 0.0000000e+00 
2.0090326e+02 4.7188618e+01 0.0000000e+00 
2.0517722e+02 6.8631073e+01 0.0000000e+00 
2.0947232e+02 9.0078285e+01 0.0000000e+00 
2.1379500e+02 1.1153061e+02 0.0000000e+00 
2.1455621e+02 -4.4709213e+01 0.0000000e+00 
2.1876913e+02 -2.3289804e+01 0.0000000e+00 
2.2298076e+02 -1.8640560e+00 0.0000000e+00 
2.2719623e+02 1.9568024e+01 0.0000000e+00 
2.3142096e+02 4.1006313e+01 0.0000000e+00 
2.3566061e+02 6.2450718e+01 0.0000000e+00 
2.3992101e+02 8.3901276e+01 0.0000000e+00 
2.4420784e+02 1.0535824e+02 0.0000000e+00 
2.4521980e+02 -5.0835915e+01 0.0000000e+00 
2.4939334e+02 -2.9417669e+01 0.0000000e+00 
2.5356532e+02 -7.9924574e+00 0.0000000e+00 
2.5774103e+02 1.3439841e+01 0.0000000e+00 
2.6192596e+02 3.4879303e+01 0.0000000e+00 
2.6612567e+02 5.6325993e+01 0.0000000e+00 
2.7034573e+02 7.7780006e+01 0.0000000e+00 
2.7459167e+02 9.9241486e+01 0.0000000e+00 
2.7588995e+02 -5.6901016e+01 0.0000000e+00 
2.8001956e+02 -3.5484035e+01 0.0000000e+00 
2.8414719e+02 -1.4059298e+01 0.0000000e+00 
2.8827817e+02 7.3734145e+00 0.0000000e+00 
2.9241809e+02 2.8814272e+01 0.0000000e+00 
2.9657248e+02 5.0263409e+01 0.0000000e+00 
3.0074698e+02 7.1720932e+01 0.0000000e+00 
3.0494714e+02 9.3186890e+01 0.0000000e+00 
3.0656720e+02 -6.2897488e+01 0.0000000e+00 
3.1064816e+02 -4.1481907e+01 0.0000000e+00 
3.1472650e+02 -2.0057642e+01 0.0000000e+00 
3.1880768e+02 1.3755854e+00 0.0000000e+00 
3.2289734e+02 2.2817978e+01 0.0000000e+00 
3.2700119e+02 4.4269669e+01 0.0000000e+00 
3.3112494e+02 6.5730736e+01 0.0000000e+00 
3.3527432e+02 8.7201202e+01 0.0000000e+00 
3.3725226e+02 -6.8818771e+01 0.0000000e+00 
3.4127963e+02 -4.7404648e+01 0.0000000e+00 
3.4530356e+02 -2.5980747e+01 0.0000000e+00 
3.4932968e+02 -4.5467763e+00 0.0000000e+00 
3.5336386e+02 1.6897406e+01 0.0000000e+00 
3.5741187e+02 3.8351837e+01 0.0000000e+00 
3.6147961e+02 5.9816547e+01 0.0000000e+00 
3.6557303e+02 8.1291565e+01 0.0000000e+00 
3.6794592e+02 -7.4658806e+01 0.0000000e+00 
3.7191452e+02 -5.3245953e+01 0.0000000e+00 
3.7587851e+02 -3.1821957e+01 0.0000000e+00 
3.7984409e+02 -1.0386602e+01 0.0000000e+00 
3.8381744e+02 1.1059971e+01 0.0000000e+00 
3.8780450e+02 3.2517578e+01 0.0000000e+00 
3.9181104e+02 5.3986130e+01 0.0000000e+00 
3.9584299e+02 7.5465744e+01 0.0000000e+00 
3.9864941e+02 -8.0412041e+01 0.0000000e+00 
4.0255310e+02 -5.8999779e+01 0.0000000e+00 
4.0645087e+02 -3.7574429e+01 0.0000000e+00 
4.1035007e+02 -1.6136345e+01 0.0000000e+00 
4.1425748e+02 5.3138342e+00 0.0000000e+00 
4.1817889e+02 2.6775335e+01 0.0000000e+00 
4.2211945e+02 4.8247978e+01 0.0000000e+00 
4.2608438e+02 6.9732162e+01 0.0000000e+00 
4.2936398e+02 -8.6073441e+01 0.0000000e+00 
4.3319482e+02 -6.4659668e+01 0.0000000e+00 
4.3701862e+02 -4.3230606e+01 0.0000000e+00 
4.4084543e+02 -2.1787027e+01 0.0000000e+00 
4.4468286e+02 -3.3175558e-01 0.0000000e+00 
4.4853503e+02 2.1134222e+01 0.0000000e+00 
4.5240567e+02 4.2611004e+01 0.0000000e+00 
4.5629861e+02 6.4099480e+01 0.0000000e+00 
4.6009180e+02 -9.1636292e+01 0.0000000e+00 
4.6383652e+02 -7.0217621e+01 0.0000000e+00 
4.6757565e+02 -4.8777832e+01 0.0000000e+00 
4.7132745e+02 -2.7327126e+01 0.0000000e+00 
4.7509290e+02 -5.8669553e+00 0.0000000e+00 
4.7887366e+02 1.5602897e+01 0.0000000e+00 
4.8267163e+02 3.7083225e+01 0.0000000e+00 
4.8648883e+02 5.8575367e+01 0.0000000e+00 
4.9084329e+02 -9.7080978e+01 0.0000000e+00 
4.9445959e+02 -7.5642242e+01 0.0000000e+00 
4.9811893e+02 -5.4197681e+01 0.0000000e+00 
5.0179617e+02 -3.2745686e+01 0.0000000e+00 
5.0548886e+02 -1.1284451e+01 0.0000000e+00 
5.0919666e+02 1.0187026e+01 0.0000000e+00 
5.1292017e+02 3.1669647e+01 0.0000000e+00 
5.1665967e+02 5.3164570e+01 0.0000000e+00 
5.2152032e+02 -1.0233036e+02 0.0000000e+00 
5.2507117e+02 -8.0917213e+01 0.0000000e+00 
5.2865277e+02 -5.9487648e+01 0.0000000e+00 
5.3225513e+02 -3.8042625e+01 0.0000000e+00 
5.3587341e+02 -1.6584240e+01 0.0000000e+00 
5.3950647e+02 4.8868866e+00 0.0000000e+00 
5.4315411e+02 2.6370766e+01 0.0000000e+00 
5.4681592e+02 4.7867760e+01 0.0000000e+00 
5.5217194e+02 -1.0752223e+02 0.0000000e+00 
5.5566797e+02 -8.6102158e+01 0.0000000e+00 
5.5917822e+02 -6.4672798e+01 0.0000000e+00 
5.6270520e+02 -4.3229969e+01 0.0000000e+00 
5.6624756e+02 -2.1772810e+01 0.0000000e+00 
5.6980438e+02 -3.0153787e-01 0.0000000e+00 
5.7337537e+02 2.1183640e+01 0.0000000e+00 
5.7696014e+02 4.2682537e+01 0.0000000e+00 
5.8281213e+02 -1.1261884e+02 0.0000000e+00 
5.8624762e+02 -9.1194298e+01 0.0000000e+00 
5.8969019e+02 -6.9760086e+01 0.0000000e+00 
5.9314374e+02 -4.8314217e+01 0.0000000e+00 
5.9661023e+02 -2.6855095e+01 0.0000000e+00 
6.0009021e+02 -5.3820195e+00 0.0000000e+00 
6.0358423e+02 1.6105152e+01 0.0000000e+00 
6.0709253e+02 3.7606201e+01 0.0000000e+00 
6.1344849e+02 -1.1760926e+02 0.0000000e+00 
6.1681689e+02 -9.6181557e+01 0.0000000e+00 
6.2018939e+02 -7.4743362e+01 0.0000000e+00 
6.2356964e+02 -5.3293568e+01 0.0000000e+00 
6.2696039e+02 -3.1831116e+01 0.0000000e+00 
6.3036340e+02 -1.0355228e+01 0.0000000e+00 
6.3377997e+02 1.1134481e+01 0.0000000e+00 
6.3721155e+02 3.2638004e+01 0.0000000e+00 
6.4408362e+02 -1.2248753e+02 0.0000000e+00 
6.4737982e+02 -1.0105769e+02 0.0000000e+00 
6.5067896e+02 -7.9616501e+01 0.0000000e+00 
6.5398425e+02 -5.8163418e+01 0.0000000e+00 
6.5729846e+02 -3.6697781e+01 0.0000000e+00 
6.6062378e+02 -1.5218987e+01 0.0000000e+00 
6.6396210e+02 6.2733870e+00 0.0000000e+00 
6.6731561e+02 2.7779551e+01 0.0000000e+00 
6.7471820e+02 -1.2724939e+02 0.0000000e+00 
6.7793835e+02 -1.0581805e+02 0.0000000e+00 
6.8116113e+02 -8.4374748e+01 0.0000000e+00 
6.8438934e+02 -6.2919220e+01 0.0000000e+00 
6.8762543e+02 -4.1451042e+01 0.0000000e+00 
6.9087177e+02 -1.9969730e+01 0.0000000e+00 
6.9413055e+02 1.5251430e+00 0.0000000e+00 
6.9740399e+02 2.3033930e+01 0.0000000e+00 
7.0535223e+02 -1.3189093e+02 0.0000000e+00 
7.0849347e+02 -1.1045860e+02 0.0000000e+00 
7.1163739e+02 -8.9013969e+01 0.0000000e+00 
7.1478638e+02 -6.7556900e+01 0.0000000e+00 
7.1794263e+02 -4.6086975e+01 0.0000000e+00 
7.2110828e+02 -2.4603710e+01 0.0000000e+00 
7.2428564e+02 -3.1066494e+00 0.0000000e+00 
7.2747699e+02 1.8404613e+01 0.0000000e+00 
7.3598541e+02 -1.3640826e+02 0.0000000e+00 
7.3904572e+02 -1.1497548e+02 0.0000000e+00 
7.4210901e+02 -9.3530487e+01 0.0000000e+00 
7.4517694e+02 -7.2072952e+01 0.0000000e+00 
7.4825128e+02 -5.0602242e+01 0.0000000e+00 
7.5133423e+02 -2.9117712e+01 0.0000000e+00 
7.5442816e+02 -7.6188431e+00 0.0000000e+00 
7.5753534e+02 1.3894706e+01 0.0000000e+00 
7.6661713e+02 -1.4079736e+02 0.0000000e+00 
7.6959589e+02 -1.1936508e+02 0.0000000e+00 
7.7257764e+02 -9.7921143e+01 0.0000000e+00 
7.7556281e+02 -7.6464622e+01 0.0000000e+00 
7.7855298e+02 -5.4994339e+01 0.0000000e+00 
7.8155060e+02 -3.3509327e+01 0.0000000e+00 
7.8455859e+02 -1.2009026e+01 0.0000000e+00 
7.8757965e+02 9.5066814e+00 0.0000000e+00 
7.9724719e+02 -1.4505415e+02 0.0000000e+00 
8.0014600e+02 -1.2362434e+02 0.0000000e+00 
8.0304602e+02 -1.0218384e+02 0.0000000e+00 
8.0594647e+02 -8.0730293e+01 0.0000000e+00 
8.0884943e+02 -5.9261658e+01 0.0000000e+00 
8.1175830e+02 -3.7776756e+01 0.0000000e+00 
8.1467719e+02 -1.6275213e+01 0.0000000e+00 
8.1760980e+02 5.2427144e+00 0.0000000e+00 
8.2787769e+02 -1.4917581e+02 0.0000000e+00 
8.3070105e+02 -1.2775284e+02 0.0000000e+00 
8.3351886e+02 -1.0631908e+02 0.0000000e+00 
8.3633099e+02 -8.4869843e+01 0.0000000e+00 
8.3914209e+02 -6.3402927e+01 0.0000000e+00 
8.4195764e+02 -4.1917854e+01 0.0000000e+00 
8.4478320e+02 -2.0414764e+01 0.0000000e+00 
8.4762415e+02 1.1057343e+00 0.0000000e+00 
8.5851855e+02 -1.5316872e+02 0.0000000e+00 
8.6127032e+02 -1.3175862e+02 0.0000000e+00 
8.6400049e+02 -1.1033096e+02 0.0000000e+00 
[...]
POINT_DATA 792
FIELD FieldData 3
DISPLACEMENT 3 792  float
0.0000000e+00 0.0000000e+00 0.0000000e+00 
4.5060639e+00 -4.1689587e-01 0.0000000e+00 
8.8644762e+00 -6.4009994e-01 0.0000000e+00 
1.3188034e+01 -7.5820351e-01 0.0000000e+00 
1.7513653e+01 -8.1880480e-01 0.0000000e+00 
2.1853380e+01 -8.4621954e-01 0.0000000e+00 
2.6211689e+01 -8.5648161e-01 0.0000000e+00 
3.0583815e+01 -8.6228013e-01 0.0000000e+00 
3.1283610e-02 -7.0270281e+00 0.0000000e+00 
4.5225558e+00 -6.9665737e+00 0.0000000e+00 
8.8768330e+00 -6.9898596e+00 0.0000000e+00 
1.3197837e+01 -7.0325251e+00 0.0000000e+00 
1.7518030e+01 -7.0692673e+00 0.0000000e+00 
2.1852652e+01 -7.0943427e+00 0.0000000e+00 
2.6208286e+01 -7.1086011e+00 0.0000000e+00 
3.0585276e+01 -7.1159310e+00 0.0000000e+00 
8.5880026e-02 -1.3396749e+01 0.0000000e+00 
4.4652123e+00 -1.3405796e+01 0.0000000e+00 
8.8352242e+00 -1.3390615e+01 0.0000000e+00 
1.3169520e+01 -1.3385954e+01 0.0000000e+00 
1.7495224e+01 -1.3389294e+01 0.0000000e+00 
2.1829941e+01 -1.3394101e+01 0.0000000e+00 
2.6185196e+01 -1.3396693e+01 0.0000000e+00 
3.0571041e+01 -1.3397421e+01 0.0000000e+00 
1.1877156e-01 -1.9737339e+01 0.0000000e+00 
4.4593282e+00 -1.9738445e+01 0.0000000e+00 
8.7939978e+00 -1.9734991e+01 0.0000000e+00 
1.3122299e+01 -1.9725555e+01 0.0000000e+00 
1.7446787e+01 -1.9716799e+01 0.0000000e+00 
2.1779516e+01 -1.9709574e+01 0.0000000e+00 
2.6132711e+01 -1.9702927e+01 0.0000000e+00 
3.0519461e+01 -1.9696095e+01 0.0000000e+00 
1.5077114e-01 -2.6035328e+01 0.0000000e+00 
4.4599924e+00 -2.6040693e+01 0.0000000e+00 
8.7671757e+00 -2.6038895e+01 0.0000000e+00 
1.3073711e+01 -2.6032404e+01 0.0000000e+00 
1.7384445e+01 -2.6022644e+01 0.0000000e+00 
2.1706457e+01 -2.6011541e+01 0.0000000e+00 
2.6049507e+01 -2.5999653e+01 0.0000000e+00 
3.0424540e+01 -2.5986292e+01 0.0000000e+00 
1.8563721e-01 -3.2301334e+01 0.0000000e+00 
4.4653387e+00 -3.2307945e+01 0.0000000e+00 
8.7435923e+00 -3.2308678e+01 0.0000000e+00 
1.3024319e+01 -3.2303917e+01 0.0000000e+00 
1.7312395e+01 -3.2294865e+01 0.0000000e+00 
2.1614260e+01 -3.2282413e+01 0.0000000e+00 
2.5937460e+01 -3.2267017e+01 0.0000000e+00 
3.0290154e+01 -3.2248165e+01 0.0000000e+00 
2.2526735e-01 -3.8528385e+01 0.0000000e+00 
4.4733481e+00 -3.8536404e+01 0.0000000e+00 
8.7201872e+00 -3.8538414e+01 0.0000000e+00 
1.2970573e+01 -3.8534695e+01 0.0000000e+00 
1.7229797e+01 -3.8525669e+01 0.0000000e+00 
2.1503750e+01 -3.8511780e+01 0.0000000e+00 
2.5798843e+01 -3.8493149e+01 0.0000000e+00 
3.0121525e+01 -3.8469391e+01 0.0000000e+00 
2.7049932e-01 -4.4709213e+01 0.0000000e+00 
4.4834266e+00 -4.4718376e+01 0.0000000e+00 
8.6950369e+00 -4.4721199e+01 0.0000000e+00 
1.2910509e+01 -4.4717690e+01 0.0000000e+00 
1.7135241e+01 -4.4707973e+01 0.0000000e+00 
2.1374897e+01 -4.4692139e+01 0.0000000e+00 
2.5635290e+01 -4.4670151e+01 0.0000000e+00 
2.9922131e+01 -4.4641762e+01 0.0000000e+00 
3.2183936e-01 -5.0835915e+01 0.0000000e+00 
4.4953794e+00 -5.0846241e+01 0.0000000e+00 
8.6673584e+00 -5.0849602e+01 0.0000000e+00 
1.2843083e+01 -5.0845871e+01 0.0000000e+00 
1.7028008e+01 -5.0834980e+01 0.0000000e+00 
2.1227697e+01 -5.0816864e+01 0.0000000e+00 
2.5447765e+01 -5.0791420e+01 0.0000000e+00 
2.9693710e+01 -5.0758514e+01 0.0000000e+00 
3.7974322e-01 -5.6901016e+01 0.0000000e+00 
4.5093470e+00 -5.6912605e+01 0.0000000e+00 
8.6369667e+00 -5.6916439e+01 0.0000000e+00 
1.2767976e+01 -5.6912300e+01 0.0000000e+00 
1.6907877e+01 -5.6900013e+01 0.0000000e+00 
2.1062267e+01 -5.6879448e+01 0.0000000e+00 
2.5236763e+01 -5.6850498e+01 0.0000000e+00 
2.9436932e+01 -5.6813107e+01 0.0000000e+00 
4.4475248e-01 -6.2897488e+01 0.0000000e+00 
4.5256991e+00 -6.2910477e+01 0.0000000e+00 
8.6040382e+00 -6.2914787e+01 0.0000000e+00 
1.2685234e+01 -6.2910130e+01 0.0000000e+00 
1.6774902e+01 -6.2896309e+01 0.0000000e+00 
2.0878736e+01 -6.2873192e+01 0.0000000e+00 
2.5002480e+01 -6.2840694e+01 0.0000000e+00 
2.9151878e+01 -6.2798801e+01 0.0000000e+00 
5.1755023e-01 -6.8818771e+01 0.0000000e+00 
4.5449409e+00 -6.8833221e+01 0.0000000e+00 
8.5688620e+00 -6.8837891e+01 0.0000000e+00 
1.2594994e+01 -6.8832489e+01 0.0000000e+00 
1.6629154e+01 -6.8816879e+01 0.0000000e+00 
2.0677183e+01 -6.8791023e+01 0.0000000e+00 
2.4744928e+01 -6.8754883e+01 0.0000000e+00 
2.8838333e+01 -6.8708435e+01 0.0000000e+00 
5.9898990e-01 -7.4658806e+01 0.0000000e+00 
4.5675921e+00 -7.4674522e+01 0.0000000e+00 
8.5315695e+00 -7.4679100e+01 0.0000000e+00 
1.2497144e+01 -7.4672318e+01 0.0000000e+00 
1.6470497e+01 -7.4654312e+01 0.0000000e+00 
2.0457560e+01 -7.4625282e+01 0.0000000e+00 
2.4464111e+01 -7.4585297e+01 0.0000000e+00 
2.8496044e+01 -7.4534256e+01 0.0000000e+00 
6.9023776e-01 -8.0412041e+01 0.0000000e+00 
4.5939193e+00 -8.0428352e+01 0.0000000e+00 
8.4916725e+00 -8.0431572e+01 0.0000000e+00 
1.2390891e+01 -8.0422058e+01 0.0000000e+00 
1.6298294e+01 -8.0400452e+01 0.0000000e+00 
2.0219709e+01 -8.0367523e+01 0.0000000e+00 
2.4160259e+01 -8.0323448e+01 0.0000000e+00 
2.8125206e+01 -8.0267838e+01 0.0000000e+00 
7.9254675e-01 -8.6073441e+01 0.0000000e+00 
4.6233935e+00 -8.6088242e+01 0.0000000e+00 
8.4471912e+00 -8.6087746e+01 0.0000000e+00 
1.2274005e+01 -8.6072739e+01 0.0000000e+00 
1.6111423e+01 -8.6046043e+01 0.0000000e+00 
1.9963612e+01 -8.6008636e+01 0.0000000e+00 
2.3834242e+01 -8.5960426e+01 0.0000000e+00 
2.7727186e+01 -8.5900520e+01 0.0000000e+00 
9.0813619e-01 -9.1636292e+01 0.0000000e+00 
4.6528506e+00 -9.1646194e+01 0.0000000e+00 
8.3919735e+00 -9.1634979e+01 0.0000000e+00 
1.2143776e+01 -9.1612839e+01 0.0000000e+00 
1.5909215e+01 -9.1581238e+01 0.0000000e+00 
1.9689983e+01 -9.1539963e+01 0.0000000e+00 
2.3487949e+01 -9.1488205e+01 0.0000000e+00 
2.7305145e+01 -9.1424637e+01 0.0000000e+00 
1.0473628e+00 -9.7080978e+01 0.0000000e+00 
4.6636796e+00 -9.7070816e+01 0.0000000e+00 
8.3230228e+00 -9.7054825e+01 0.0000000e+00 
1.2000259e+01 -9.7031403e+01 0.0000000e+00 
1.5692942e+01 -9.6998734e+01 0.0000000e+00 
1.9400745e+01 -9.6955833e+01 0.0000000e+00 
2.3124220e+01 -9.6901779e+01 0.0000000e+00 
2.6863770e+01 -9.6835434e+01 0.0000000e+00 
1.1121626e+00 -1.0233036e+02 0.0000000e+00 
4.6629925e+00 -1.0234578e+02 0.0000000e+00 
8.2446337e+00 -1.0234479e+02 0.0000000e+00 
1.1846994e+01 -1.0232834e+02 0.0000000e+00 
1.5465236e+01 -1.0229852e+02 0.0000000e+00 
1.9098305e+01 -1.0225597e+02 0.0000000e+00 
2.2745962e+01 -1.0220066e+02 0.0000000e+00 
2.6407726e+01 -1.0213224e+02 0.0000000e+00 
1.1515154e+00 -1.0752223e+02 0.0000000e+00 
4.6475830e+00 -1.0753073e+02 0.0000000e+00 
8.1578312e+00 -1.0752994e+02 0.0000000e+00 
1.1684811e+01 -1.0751569e+02 0.0000000e+00 
1.5227154e+01 -1.0748710e+02 0.0000000e+00 
1.8783979e+01 -1.0744440e+02 0.0000000e+00 
2.2354977e+01 -1.0738779e+02 0.0000000e+00 
2.5939732e+01 -1.0731747e+02 0.0000000e+00 
1.1794524e+00 -1.1261884e+02 0.0000000e+00 
4.6149402e+00 -1.1262287e+02 0.0000000e+00 
8.0575027e+00 -1.1261723e+02 0.0000000e+00 
1.1511092e+01 -1.1259993e+02 0.0000000e+00 
1.4977566e+01 -1.1256938e+02 0.0000000e+00 
1.8457577e+01 -1.1252488e+02 0.0000000e+00 
2.1951546e+01 -1.1246628e+02 0.0000000e+00 
2.5459871e+01 -1.1239380e+02 0.0000000e+00 
1.2035942e+00 -1.1760926e+02 0.0000000e+00 
4.5720100e+00 -1.1761013e+02 0.0000000e+00 
7.9444685e+00 -1.1760051e+02 0.0000000e+00 
1.1324765e+01 -1.1757928e+02 0.0000000e+00 
1.4715511e+01 -1.1754540e+02 0.0000000e+00 
1.8118492e+01 -1.1749809e+02 0.0000000e+00 
2.1535074e+01 -1.1743695e+02 0.0000000e+00 
2.4966639e+01 -1.1736200e+02 0.0000000e+00 
1.2264498e+00 -1.2248753e+02 0.0000000e+00 
4.5226974e+00 -1.2248627e+02 0.0000000e+00 
7.8218150e+00 -1.2247364e+02 0.0000000e+00 
1.1127118e+01 -1.2244913e+02 0.0000000e+00 
1.4441311e+01 -1.2241206e+02 0.0000000e+00 
1.7766611e+01 -1.2236185e+02 0.0000000e+00 
2.1104984e+01 -1.2229804e+02 0.0000000e+00 
2.4458458e+01 -1.2222045e+02 0.0000000e+00 
1.2487854e+00 -1.2724939e+02 0.0000000e+00 
4.4689751e+00 -1.2724662e+02 0.0000000e+00 
7.6917491e+00 -1.2723189e+02 0.0000000e+00 
1.0919933e+01 -1.2720493e+02 0.0000000e+00 
1.4156049e+01 -1.2716533e+02 0.0000000e+00 
1.7402395e+01 -1.2711259e+02 0.0000000e+00 
2.0661169e+01 -1.2704629e+02 0.0000000e+00 
2.3934616e+01 -1.2696607e+02 0.0000000e+00 
1.2706113e+00 -1.3189093e+02 0.0000000e+00 
4.4118142e+00 -1.3188716e+02 0.0000000e+00 
7.5557742e+00 -1.3187111e+02 0.0000000e+00 
1.0704754e+01 -1.3184261e+02 0.0000000e+00 
1.3860970e+01 -1.3180125e+02 0.0000000e+00 
1.7026648e+01 -1.3174657e+02 0.0000000e+00 
2.0204033e+01 -1.3167809e+02 0.0000000e+00 
2.3395351e+01 -1.3159538e+02 0.0000000e+00 
1.2915145e+00 -1.3640826e+02 0.0000000e+00 
4.3518171e+00 -1.3640405e+02 0.0000000e+00 
7.4151478e+00 -1.3638763e+02 0.0000000e+00 
1.0483056e+01 -1.3635866e+02 0.0000000e+00 
1.3557390e+01 -1.3631653e+02 0.0000000e+00 
1.6640333e+01 -1.3626057e+02 0.0000000e+00 
1.9734255e+01 -1.3619028e+02 0.0000000e+00 
2.2841444e+01 -1.3610530e+02 0.0000000e+00 
1.3109905e+00 -1.4079736e+02 0.0000000e+00 
4.2897763e+00 -1.4079366e+02 0.0000000e+00 
7.2714953e+00 -1.4077829e+02 0.0000000e+00 
1.0256662e+01 -1.4075034e+02 0.0000000e+00 
1.3246840e+01 -1.4070862e+02 0.0000000e+00 
1.6244476e+01 -1.4065219e+02 0.0000000e+00 
1.9252455e+01 -1.4058046e+02 0.0000000e+00 
2.2273548e+01 -1.4049332e+02 0.0000000e+00 
1.3288343e+00 -1.4505415e+02 0.0000000e+00 
4.2276392e+00 -1.4505292e+02 0.0000000e+00 
7.1276317e+00 -1.4504099e+02 0.0000000e+00 
1.0028128e+01 -1.4501601e+02 0.0000000e+00 
1.2931067e+01 -1.4497595e+02 0.0000000e+00 
1.5839952e+01 -1.4491962e+02 0.0000000e+00 
1.8758791e+01 -1.4484663e+02 0.0000000e+00 
2.1691452e+01 -1.4475728e+02 0.0000000e+00 
1.3470463e+00 -1.4917581e+02 0.0000000e+00 
4.1704249e+00 -1.4918141e+02 0.0000000e+00 
6.9882197e+00 -1.4917622e+02 0.0000000e+00 
9.8003826e+00 -1.4915555e+02 0.0000000e+00 
1.2611460e+01 -1.4911722e+02 0.0000000e+00 
1.5427053e+01 -1.4906071e+02 0.0000000e+00 
1.8252621e+01 -1.4898619e+02 0.0000000e+00 
2.1093515e+01 -1.4889427e+02 0.0000000e+00 
1.3757116e+00 -1.5316872e+02 0.0000000e+00 
4.1274619e+00 -1.5318719e+02 0.0000000e+00 
6.8576417e+00 -1.5318810e+02 0.0000000e+00 
9.5745277e+00 -1.5316855e+02 0.0000000e+00 
1.2287949e+01 -1.5312932e+02 0.0000000e+00 
1.5005119e+01 -1.5307103e+02 0.0000000e+00 
1.7732550e+01 -1.5299408e+02 0.0000000e+00 
2.0476852e+01 -1.5289903e+02 0.0000000e+00 
1.4275665e+00 -1.5707251e+02 0.0000000e+00 
4.1037936e+00 -1.5708199e+02 0.0000000e+00 
6.7335858e+00 -1.5707372e+02 0.0000000e+00 
9.3484402e+00 -1.5704770e+02 0.0000000e+00 
1.1958967e+01 -1.5700378e+02 0.0000000e+00 
1.4572933e+01 -1.5694180e+02 0.0000000e+00 
1.7197130e+01 -1.5686160e+02 0.0000000e+00 
1.9838631e+01 -1.5676297e+02 0.0000000e+00 
1.5531579e+00 -1.6082106e+02 0.0000000e+00 
4.0928416e+00 -1.6082341e+02 0.0000000e+00 
6.6132226e+00 -1.6080673e+02 0.0000000e+00 
9.1203794e+00 -1.6077452e+02 0.0000000e+00 
1.1623656e+01 -1.6072601e+02 0.0000000e+00 
1.4130053e+01 -1.6066043e+02 0.0000000e+00 
1.6645952e+01 -1.6057703e+02 0.0000000e+00 
1.9177879e+01 -1.6047490e+02 0.0000000e+00 
1.6966258e+00 -1.6435992e+02 0.0000000e+00 
4.1007333e+00 -1.6437309e+02 0.0000000e+00 
6.4995804e+00 -1.6436211e+02 0.0000000e+00 
8.8925085e+00 -1.6433095e+02 0.0000000e+00 
1.1283440e+01 -1.6428162e+02 0.0000000e+00 
1.3677603e+01 -1.6421434e+02 0.0000000e+00 
1.6080194e+01 -1.6412869e+02 0.0000000e+00 
1.8496391e+01 -1.6402364e+02 0.0000000e+00 
1.8476502e+00 -1.6772466e+02 0.0000000e+00 
4.1214147e+00 -1.6774286e+02 0.0000000e+00 
6.3947053e+00 -1.6773740e+02 0.0000000e+00 
8.6671391e+00 -1.6770999e+02 0.0000000e+00 
1.0940362e+01 -1.6766222e+02 0.0000000e+00 
1.3217469e+01 -1.6759488e+02 0.0000000e+00 
1.5502108e+01 -1.6750793e+02 0.0000000e+00 
1.7797859e+01 -1.6740067e+02 0.0000000e+00 
1.9999410e+00 -1.7091838e+02 0.0000000e+00 
4.1468725e+00 -1.7093845e+02 0.0000000e+00 
6.2946067e+00 -1.7093571e+02 0.0000000e+00 
8.4435825e+00 -1.7091086e+02 0.0000000e+00 
1.0595066e+01 -1.7086464e+02 0.0000000e+00 
1.2751061e+01 -1.7079759e+02 0.0000000e+00 
1.4913974e+01 -1.7070979e+02 0.0000000e+00 
1.7086145e+01 -1.7060083e+02 0.0000000e+00 
2.1520240e+00 -1.7393829e+02 0.0000000e+00 
4.1733832e+00 -1.7395869e+02 0.0000000e+00 
6.1956038e+00 -1.7395689e+02 0.0000000e+00 
8.2197142e+00 -1.7393307e+02 0.0000000e+00 
1.0246986e+01 -1.7388753e+02 0.0000000e+00 
1.2278994e+01 -1.7382043e+02 0.0000000e+00 
1.4317470e+01 -1.7373181e+02 0.0000000e+00 
1.6364075e+01 -1.7362141e+02 0.0000000e+00 
2.3039322e+00 -1.7678064e+02 0.0000000e+00 
4.1995482e+00 -1.7680078e+02 0.0000000e+00 
6.0958004e+00 -1.7679900e+02 0.0000000e+00 
7.9939709e+00 -1.7677527e+02 0.0000000e+00 
9.8953848e+00 -1.7672961e+02 0.0000000e+00 
1.1801447e+01 -1.7666205e+02 0.0000000e+00 
1.3713605e+01 -1.7657251e+02 0.0000000e+00 
1.5633249e+01 -1.7646082e+02 0.0000000e+00 
2.4559460e+00 -1.7944206e+02 0.0000000e+00 
4.2250071e+00 -1.7946178e+02 0.0000000e+00 
5.9944434e+00 -1.7945964e+02 0.0000000e+00 
7.7656178e+00 -1.7943552e+02 0.0000000e+00 
9.5398674e+00 -1.7938936e+02 0.0000000e+00 
1.1318531e+01 -1.7932106e+02 0.0000000e+00 
1.3102947e+01 -1.7923053e+02 0.0000000e+00 
1.4894436e+01 -1.7911758e+02 0.0000000e+00 
2.6083860e+00 -1.8191974e+02 0.0000000e+00 
4.2498007e+00 -1.8193907e+02 0.0000000e+00 
5.8913779e+00 -1.8193646e+02 0.0000000e+00 
7.5344677e+00 -1.8191180e+02 0.0000000e+00 
9.1803837e+00 -1.8186499e+02 0.0000000e+00 
1.0830421e+01 -1.8179588e+02 0.0000000e+00 
1.2485869e+01 -1.8170433e+02 0.0000000e+00 
1.4148028e+01 -1.8159019e+02 0.0000000e+00 
2.7615175e+00 -1.8421130e+02 0.0000000e+00 
4.2741070e+00 -1.8423036e+02 0.0000000e+00 
5.7867107e+00 -1.8422734e+02 0.0000000e+00 
7.3006191e+00 -1.8420213e+02 0.0000000e+00 
8.8170919e+00 -1.8415465e+02 0.0000000e+00 
1.0337372e+01 -1.8408473e+02 0.0000000e+00 
1.1862703e+01 -1.8399222e+02 0.0000000e+00 
1.3394349e+01 -1.8387694e+02 0.0000000e+00 
2.9155197e+00 -1.8631476e+02 0.0000000e+00 
4.2981191e+00 -1.8633365e+02 0.0000000e+00 
5.6806421e+00 -1.8633029e+02 0.0000000e+00 
7.0642929e+00 -1.8630461e+02 0.0000000e+00 
8.4502535e+00 -1.8625652e+02 0.0000000e+00 
9.8396988e+00 -1.8618584e+02 0.0000000e+00 
1.1233808e+01 -1.8609242e+02 0.0000000e+00 
1.2633778e+01 -1.8597607e+02 0.0000000e+00 
3.0704863e+00 -1.8822833e+02 0.0000000e+00 
4.3219948e+00 -1.8824715e+02 0.0000000e+00 
5.5733805e+00 -1.8824355e+02 0.0000000e+00 
6.8257442e+00 -1.8821748e+02 0.0000000e+00 
8.0801764e+00 -1.8816884e+02 0.0000000e+00 
9.3377628e+00 -1.8809749e+02 0.0000000e+00 
1.0599594e+01 -1.8800325e+02 0.0000000e+00 
1.1866782e+01 -1.8788591e+02 0.0000000e+00 
3.2264373e+00 -1.8995049e+02 0.0000000e+00 
4.3458447e+00 -1.8996930e+02 0.0000000e+00 
5.4651132e+00 -1.8996553e+02 0.0000000e+00 
6.5852308e+00 -1.8993915e+02 0.0000000e+00 
7.7071829e+00 -1.8989005e+02 0.0000000e+00 
8.8319511e+00 -1.8981810e+02 0.0000000e+00 
9.9605246e+00 -1.8972313e+02 0.0000000e+00 
1.1093906e+01 -1.8960489e+02 0.0000000e+00 
3.3833368e+00 -1.9147987e+02 0.0000000e+00 
4.3697371e+00 -1.9149872e+02 0.0000000e+00 
5.3560004e+00 -1.9149483e+02 0.0000000e+00 
6.3429976e+00 -1.9146819e+02 0.0000000e+00 
7.3315983e+00 -1.9141870e+02 0.0000000e+00 
8.3226728e+00 -1.9134625e+02 0.0000000e+00 
9.3170948e+00 -1.9125063e+02 0.0000000e+00 
1.0315750e+01 -1.9113158e+02 0.0000000e+00 
3.5411088e+00 -1.9281528e+02 0.0000000e+00 
4.3937063e+00 -1.9283417e+02 0.0000000e+00 
5.2461791e+00 -1.9283020e+02 0.0000000e+00 
6.0992770e+00 -1.9280336e+02 0.0000000e+00 
6.9537497e+00 -1.9275356e+02 0.0000000e+00 
7.8103485e+00 -1.9268065e+02 0.0000000e+00 
8.6698284e+00 -1.9258446e+02 0.0000000e+00 
9.5329475e+00 -1.9246474e+02 0.0000000e+00 
3.6996531e+00 -1.9395567e+02 0.0000000e+00 
4.4177637e+00 -1.9397461e+02 0.0000000e+00 
5.1357675e+00 -1.9397060e+02 0.0000000e+00 
5.8542914e+00 -1.9394359e+02 0.0000000e+00 
6.5739622e+00 -1.9389352e+02 0.0000000e+00 
7.2954082e+00 -1.9382025e+02 0.0000000e+00 
8.0192595e+00 -1.9372359e+02 0.0000000e+00 
8.7461500e+00 -1.9360327e+02 0.0000000e+00 
3.8588526e+00 -1.9490016e+02 0.0000000e+00 
4.4419065e+00 -1.9491916e+02 0.0000000e+00 
5.0248742e+00 -1.9491510e+02 0.0000000e+00 
5.6082582e+00 -1.9488797e+02 0.0000000e+00 
6.1925602e+00 -1.9483769e+02 0.0000000e+00 
6.7782845e+00 -1.9476411e+02 0.0000000e+00 
7.3659353e+00 -1.9466705e+02 0.0000000e+00 
7.9560194e+00 -1.9454626e+02 0.0000000e+00 
4.0185823e+00 -1.9564803e+02 0.0000000e+00 
4.4661236e+00 -1.9566707e+02 0.0000000e+00 
4.9136004e+00 -1.9566299e+02 0.0000000e+00 
5.3613892e+00 -1.9563577e+02 0.0000000e+00 
5.8098674e+00 -1.9558531e+02 0.0000000e+00 
6.2594128e+00 -1.9551151e+02 0.0000000e+00 
6.7104044e+00 -1.9541415e+02 0.0000000e+00 
7.1632223e+00 -1.9529298e+02 0.0000000e+00 
4.1787124e+00 -1.9619870e+02 0.0000000e+00 
4.4903994e+00 -1.9621777e+02 0.0000000e+00 
4.8020430e+00 -1.9621368e+02 0.0000000e+00 
5.1138945e+00 -1.9618640e+02 0.0000000e+00 
5.4262061e+00 -1.9613583e+02 0.0000000e+00 
5.7392297e+00 -1.9606186e+02 0.0000000e+00 
6.0532179e+00 -1.9596428e+02 0.0000000e+00 
6.3684244e+00 -1.9584285e+02 0.0000000e+00 
4.3391113e+00 -1.9655179e+02 0.0000000e+00 
4.5147166e+00 -1.9657089e+02 0.0000000e+00 
4.6902990e+00 -1.9656679e+02 0.0000000e+00 
4.8659844e+00 -1.9653946e+02 0.0000000e+00 
5.0418997e+00 -1.9648883e+02 0.0000000e+00 
5.2181711e+00 -1.9641476e+02 0.0000000e+00 
5.3949265e+00 -1.9631705e+02 0.0000000e+00 
5.5722928e+00 -1.9619545e+02 0.0000000e+00 
4.4996471e+00 -1.9670703e+02 0.0000000e+00 
4.5390563e+00 -1.9672615e+02 0.0000000e+00 
4.5784626e+00 -1.9672205e+02 0.0000000e+00 
4.6178670e+00 -1.9669472e+02 0.0000000e+00 
4.6572704e+00 -1.9664406e+02 0.0000000e+00 
4.6966748e+00 -1.9656995e+02 0.0000000e+00 
4.7360816e+00 -1.9647220e+02 0.0000000e+00 
4.7754922e+00 -1.9635056e+02 0.0000000e+00 
4.6601887e+00 -1.9666438e+02 0.0000000e+00 
4.5634007e+00 -1.9668349e+02 0.0000000e+00 
4.4666300e+00 -1.9667938e+02 0.0000000e+00 
4.3697515e+00 -1.9665207e+02 0.0000000e+00 
4.2726417e+00 -1.9660144e+02 0.0000000e+00 
4.1751766e+00 -1.9652737e+02 0.0000000e+00 
4.0772333e+00 -1.9642966e+02 0.0000000e+00 
3.9786873e+00 -1.9630806e+02 0.0000000e+00 
4.8206034e+00 -1.9642389e+02 0.0000000e+00 
4.5877318e+00 -1.9644298e+02 0.0000000e+00 
4.3548961e+00 -1.9643889e+02 0.0000000e+00 
4.1218467e+00 -1.9641161e+02 0.0000000e+00 
3.8883352e+00 -1.9636105e+02 0.0000000e+00 
3.6541131e+00 -1.9628708e+02 0.0000000e+00 
3.4189315e+00 -1.9618950e+02 0.0000000e+00 
3.1825414e+00 -1.9606805e+02 0.0000000e+00 
4.9807615e+00 -1.9598579e+02 0.0000000e+00 
4.6120319e+00 -1.9600485e+02 0.0000000e+00 
4.2433567e+00 -1.9600079e+02 0.0000000e+00 
3.8743618e+00 -1.9597357e+02 0.0000000e+00 
3.5046742e+00 -1.9592314e+02 0.0000000e+00 
3.1339200e+00 -1.9584933e+02 0.0000000e+00 
2.7617257e+00 -1.9575197e+02 0.0000000e+00 
2.3877172e+00 -1.9563080e+02 0.0000000e+00 
5.1405320e+00 -1.9535052e+02 0.0000000e+00 
4.6362829e+00 -1.9536954e+02 0.0000000e+00 
4.1321073e+00 -1.9536549e+02 0.0000000e+00 
3.6275058e+00 -1.9533838e+02 0.0000000e+00 
3.1219807e+00 -1.9528810e+02 0.0000000e+00 
2.6150331e+00 -1.9521452e+02 0.0000000e+00 
2.1061649e+00 -1.9511746e+02 0.0000000e+00 
1.5948776e+00 -1.9499666e+02 0.0000000e+00 
5.2997847e+00 -1.9451863e+02 0.0000000e+00 
4.6604686e+00 -1.9453758e+02 0.0000000e+00 
4.0212445e+00 -1.9453358e+02 0.0000000e+00 
3.3814883e+00 -1.9450658e+02 0.0000000e+00 
2.7405775e+00 -1.9445651e+02 0.0000000e+00 
2.0978885e+00 -1.9438324e+02 0.0000000e+00 
1.4527986e+00 -1.9428656e+02 0.0000000e+00 
8.0468440e-01 -1.9416623e+02 0.0000000e+00 
5.4583893e+00 -1.9349083e+02 0.0000000e+00 
4.6845717e+00 -1.9350972e+02 0.0000000e+00 
3.9108641e+00 -1.9350575e+02 0.0000000e+00 
3.1365182e+00 -1.9347890e+02 0.0000000e+00 
2.3607869e+00 -1.9342909e+02 0.0000000e+00 
1.5829219e+00 -1.9335619e+02 0.0000000e+00 
8.0217534e-01 -1.9325998e+02 0.0000000e+00 
1.7799579e-02 -1.9314024e+02 0.0000000e+00 
5.6162162e+00 -1.9226804e+02 0.0000000e+00 
4.7085752e+00 -1.9228685e+02 0.0000000e+00 
3.8010626e+00 -1.9228291e+02 0.0000000e+00 
2.8928056e+00 -1.9225624e+02 0.0000000e+00 
1.9829317e+00 -1.9220673e+02 0.0000000e+00 