# vtk DataFile Version 4.0
vtk output
ASCII
DATASET UNSTRUCTURED_GRID
POINTS 56 float
4.7991113e+02 -1.6122206e+02 0.0000000e+00 
4.8363757e+02 -1.3986513e+02 0.0000000e+00 
4.8726355e+02 -1.1848886e+02 0.0000000e+00 
4.9084329e+02 -9.7080978e+01 0.0000000e+00 
5.1070340e+02 -1.6654604e+02 0.0000000e+00 
5.1435034e+02 -1.4514140e+02 0.0000000e+00 
5.1794611e+02 -1.2373220e+02 0.0000000e+00 
5.2152032e+02 -1.0233036e+02 0.0000000e+00 
5.4151300e+02 -1.7173624e+02 0.0000000e+00 
5.4508789e+02 -1.5033615e+02 0.0000000e+00 
5.4863904e+02 -1.2892935e+02 0.0000000e+00 
5.5217194e+02 -1.0752223e+02 0.0000000e+00 
5.7234497e+02 -1.7682990e+02 0.0000000e+00 
5.7584991e+02 -1.5543411e+02 0.0000000e+00 
5.7933844e+02 -1.3402914e+02 0.0000000e+00 
5.8281213e+02 -1.1261884e+02 0.0000000e+00 
6.0319653e+02 -1.8181821e+02 0.0000000e+00 
6.0662616e+02 -1.6042557e+02 0.0000000e+00 
6.1004340e+02 -1.3902158e+02 0.0000000e+00 
6.1344849e+02 -1.1760926e+02 0.0000000e+00 
6.3406268e+02 -1.8669475e+02 0.0000000e+00 
6.3741272e+02 -1.6530443e+02 0.0000000e+00 
6.4075305e+02 -1.4390123e+02 0.0000000e+00 
6.4408362e+02 -1.2248753e+02 0.0000000e+00 
6.6494000e+02 -1.9145541e+02 0.0000000e+00 
6.6820721e+02 -1.7006665e+02 0.0000000e+00 
6.7146661e+02 -1.4866396e+02 0.0000000e+00 
6.7471820e+02 -1.2724939e+02 0.0000000e+00 
6.9582635e+02 -1.9609647e+02 0.0000000e+00 
6.9900775e+02 -1.7470865e+02 0.0000000e+00 
7.0218298e+02 -1.5330609e+02 0.0000000e+00 
7.0535223e+02 -1.3189093e+02 0.0000000e+00 
7.2672003e+02 -2.0061412e+02 0.0000000e+00 
7.2981268e+02 -1.7922664e+02 0.0000000e+00 
7.3290106e+02 -1.5782401e+02 0.0000000e+00 
7.3598541e+02 -1.3640826e+02 0.0000000e+00 
7.5761896e+02 -2.0500424e+02 0.0000000e+00 
7.6062006e+02 -1.8361661e+02 0.0000000e+00 
7.6361945e+02 -1.6221353e+02 0.0000000e+00 
7.6661713e+02 -1.4079736e+02 0.0000000e+00 
7.8852057e+02 -2.0926277e+02 0.0000000e+00 
7.9142737e+02 -1.8787433e+02 0.0000000e+00 
7.9433649e+02 -1.6647055e+02 0.0000000e+00 
7.9724719e+02 -1.4505415e+02 0.0000000e+00 
8.1942163e+02 -2.1338612e+02 0.0000000e+00 
8.2223016e+02 -1.9199693e+02 0.0000000e+00 
8.2504938e+02 -1.7059044e+02 0.0000000e+00 
8.2787769e+02 -1.4917581e+02 0.0000000e+00 
8.5032202e+02 -2.1737038e+02 0.0000000e+00 
8.5301605e+02 -1.9597798e+02 0.0000000e+00 
8.5575513e+02 -1.7457291e+02 0.0000000e+00 
8.5851855e+02 -1.5316872e+02 0.0000000e+00 
8.8122864e+02 -2.2114427e+02 0.0000000e+00 
8.8377795e+02 -1.9981488e+02 0.0000000e+00 
8.8646027e+02 -1.7846071e+02 0.0000000e+00 
8.8918268e+02 -1.5707251e+02 0.0000000e+00 

CELLS 39 195
4 0 4 5 1
4 1 5 6 2
4 2 6 7 3
4 4 8 9 5
4 5 9 10 6
4 6 10 11 7
4 8 12 13 9
4 9 13 14 10
4 10 14 15 11
4 12 16 17 13
4 13 17 18 14
4 14 18 19 15
4 16 20 21 17
4 17 21 22 18
4 18 22 23 19
4 20 24 25 21
4 21 25 26 22
4 22 26 27 23
4 24 28 29 25
4 25 29 30 26
4 26 30 31 27
4 28 32 33 29
4 29 33 34 30
4 30 34 35 31
4 32 36 37 33
4 33 37 38 34
4 34 38 39 35
4 36 40 41 37
4 37 41 42 38
4 38 42 43 39
4 40 44 45 41
4 41 45 46 42
4 42 46 47 43
4 44 48 49 45
4 45 49 50 46
4 46 50 51 47
4 48 52 53 49
4 49 53 54 50
4 50 54 55 51

CELL_TYPES 39
9
9
9
9
9
9
9
9
9
9
9
9
9
9
9
9
9
9
9
9
9
9
9
9
9
9
9
9
9
9
9
9
9
9
9
9
9
9
9
POINT_DATA 56
FIELD FieldData 3
DISPLACEMENT 3 56  float
-9.8847866e+00 -9.6936340e+01 0.0000000e+00 
-6.1583529e+00 -9.7007980e+01 0.0000000e+00 
-2.5323625e+00 -9.7060295e+01 0.0000000e+00 
1.0473628e+00 -9.7080978e+01 0.0000000e+00 
-9.7047548e+00 -1.0226031e+02 0.0000000e+00 
-6.0578136e+00 -1.0228426e+02 0.0000000e+00 
-2.4620769e+00 -1.0230363e+02 0.0000000e+00 
1.1121626e+00 -1.0233036e+02 0.0000000e+00 
-9.5073833e+00 -1.0745052e+02 0.0000000e+00 
-5.9325285e+00 -1.0747901e+02 0.0000000e+00 
-2.3813589e+00 -1.0750078e+02 0.0000000e+00 
1.1515154e+00 -1.0752223e+02 0.0000000e+00 
-9.2876568e+00 -1.1254418e+02 0.0000000e+00 
-5.7827539e+00 -1.1257697e+02 0.0000000e+00 
-2.2942374e+00 -1.1260057e+02 0.0000000e+00 
1.1794524e+00 -1.1261884e+02 0.0000000e+00 
-9.0483580e+00 -1.1753249e+02 0.0000000e+00 
-5.6187663e+00 -1.1756843e+02 0.0000000e+00 
-2.2015066e+00 -1.1759301e+02 0.0000000e+00 
1.2035942e+00 -1.1760926e+02 0.0000000e+00 
-8.7944822e+00 -1.2240904e+02 0.0000000e+00 
-5.4444332e+00 -1.2244729e+02 0.0000000e+00 
-2.1040719e+00 -1.2247266e+02 0.0000000e+00 
1.2264498e+00 -1.2248753e+02 0.0000000e+00 
-8.5293837e+00 -1.2716969e+02 0.0000000e+00 
-5.2621717e+00 -1.2720951e+02 0.0000000e+00 
-2.0027695e+00 -1.2723537e+02 0.0000000e+00 
1.2487854e+00 -1.2724939e+02 0.0000000e+00 
-8.2552557e+00 -1.3181076e+02 0.0000000e+00 
-5.0738678e+00 -1.3185150e+02 0.0000000e+00 
-1.8986231e+00 -1.3187752e+02 0.0000000e+00 
1.2706113e+00 -1.3189093e+02 0.0000000e+00 
-7.9738712e+00 -1.3632841e+02 0.0000000e+00 
-4.8812084e+00 -1.3636951e+02 0.0000000e+00 
-1.7928261e+00 -1.3639543e+02 0.0000000e+00 
1.2915145e+00 -1.3640826e+02 0.0000000e+00 
-7.6871567e+00 -1.4071854e+02 0.0000000e+00 
-4.6860824e+00 -1.4075946e+02 0.0000000e+00 
-1.6866978e+00 -1.4078496e+02 0.0000000e+00 
1.3109905e+00 -1.4079736e+02 0.0000000e+00 
-7.3977947e+00 -1.4497707e+02 0.0000000e+00 
-4.4910135e+00 -1.4501720e+02 0.0000000e+00 
-1.5818504e+00 -1.4504199e+02 0.0000000e+00 
1.3288343e+00 -1.4505415e+02 0.0000000e+00 
-7.1090102e+00 -1.4910040e+02 0.0000000e+00 
-4.3004260e+00 -1.4913979e+02 0.0000000e+00 
-1.4812199e+00 -1.4916187e+02 0.0000000e+00 
1.3470463e+00 -1.4917581e+02 0.0000000e+00 
-6.8208561e+00 -1.5308466e+02 0.0000000e+00 
-4.1268301e+00 -1.5312083e+02 0.0000000e+00 
-1.3877590e+00 -1.5314433e+02 0.0000000e+00 
1.3757116e+00 -1.5316872e+02 0.0000000e+00 
-6.5264683e+00 -1.5685855e+02 0.0000000e+00 
-3.9771636e+00 -1.5695773e+02 0.0000000e+00 
-1.2948289e+00 -1.5703214e+02 0.0000000e+00 
1.4275665e+00 -1.5707251e+02 0.0000000e+00 
REACTION 3 56  float
-2.9249787e-01 3.0001527e-02 0.0000000e+00 
-2.1585475e-01 5.9821033e-03 0.0000000e+00 
1.0381018e-01 -3.3954483e-02 0.0000000e+00 
1.3104778e-02 -6.6189212e-03 0.0000000e+00 
1.5900198e-01 -3.8389906e-02 0.0000000e+00 
-1.5061550e-01 6.5833464e-02 0.0000000e+00 
-7.4827529e-02 2.5462383e-02 0.0000000e+00 
-1.8518653e-02 9.0381401e-03 0.0000000e+00 
2.1583609e-01 -2.5402861e-02 0.0000000e+00 
1.3188377e-01 -9.9054025e-03 0.0000000e+00 
1.4046197e-02 -8.1829429e-03 0.0000000e+00 
-4.4869585e-03 1.9624042e-03 0.0000000e+00 
3.9112210e-02 -4.7336533e-03 0.0000000e+00 
2.9208107e-02 -3.0895092e-03 0.0000000e+00 
7.5305160e-03 -3.5117792e-03 0.0000000e+00 
2.7227716e-04 -4.8339643e-05 0.0000000e+00 
1.0714673e-02 -1.2942917e-03 0.0000000e+00 
9.6974503e-03 -1.0419869e-03 0.0000000e+00 
1.9405843e-04 -3.4075747e-05 0.0000000e+00 
-3.4396359e-04 1.2913872e-04 0.0000000e+00 
2.4190252e-03 -4.6869941e-04 0.0000000e+00 
9.2656352e-04 -1.1127268e-04 0.0000000e+00 
-1.1270351e-03 1.7877549e-04 0.0000000e+00 
-2.3508556e-04 8.9766661e-05 0.0000000e+00 
3.4191445e-03 -4.2670165e-04 0.0000000e+00 
1.6985708e-03 -1.8534930e-04 0.0000000e+00 
-2.4243025e-03 4.8582302e-04 0.0000000e+00 
-1.0073413e-03 3.3631330e-04 0.0000000e+00 
1.3942167e-04 -2.1070408e-04 0.0000000e+00 
-9.8159455e-04 -8.1566133e-05 0.0000000e+00 
-1.9569620e-03 2.4581820e-04 0.0000000e+00 
-9.9881634e-04 3.7442276e-04 0.0000000e+00 
-4.3703138e-04 -2.4232530e-04 0.0000000e+00 
-2.9976276e-04 -1.9677531e-04 0.0000000e+00 
-1.7006701e-03 2.3450764e-04 0.0000000e+00 
-1.6660547e-03 6.0817786e-04 0.0000000e+00 
1.2923153e-03 -4.0065564e-04 0.0000000e+00 
1.4139502e-04 -2.2792711e-04 0.0000000e+00 
-2.9748450e-03 1.6188472e-04 0.0000000e+00 
-2.9125793e-03 1.0263980e-03 0.0000000e+00 
-1.0939469e-03 -3.3523375e-04 0.0000000e+00 
-5.6230752e-03 -1.6226051e-05 0.0000000e+00 
-2.1630671e-02 6.8984204e-04 0.0000000e+00 
-1.2909703e-02 3.1936003e-03 0.0000000e+00 
-1.8514140e-02 4.5742129e-04 0.0000000e+00 
-2.1708718e-02 1.6604713e-03 0.0000000e+00 
4.3943096e-02 -2.4809414e-03 0.0000000e+00 
1.5329194e-02 4.6297134e-04 0.0000000e+00 
2.3562644e-02 -3.4552552e-03 0.0000000e+00 
3.5886548e-02 2.6685819e-05 0.0000000e+00 
3.4722939e-02 3.2912171e-03 0.0000000e+00 
7.2455970e-03 9.6901343e-04 0.0000000e+00 
1.3620547e-02 -1.0448074e-03 0.0000000e+00 
-2.4972039e-03 -1.1468842e-03 0.0000000e+00 
-3.4382612e-02 -3.2566756e-03 0.0000000e+00 
-2.4531908e-02 -2.4055359e-03 0.0000000e+00 
PK2_STRESS_VECTOR 3 56  float
1.8596729e+02 -1.4925407e+01 -1.2050206e+01 
1.7714034e+02 -1.2968276e+01 -3.7345432e+01 
1.2922282e+02 -6.5467553e-03 -6.3147041e+01 
9.4940147e+01 1.5971747e+01 -7.0759811e+01 
2.2174315e+02 -6.3660927e+00 -1.5781078e+01 
2.3632504e+02 -6.1042237e+00 -4.7259323e+01 
1.5273480e+02 -5.5090289e+00 -7.3982460e+01 
7.4255714e+01 -7.1266556e+00 -7.0594772e+01 
2.5194023e+02 6.4043641e+00 -1.8984804e+01 
2.8480887e+02 4.9580712e+00 -4.5101646e+01 
1.6816814e+02 -3.9041993e-01 -6.5211113e+01 
5.5130375e+01 -9.0328207e+00 -6.3759335e+01 
2.7775363e+02 6.8214674e+00 -2.1814575e+01 
3.2047086e+02 4.0730805e+00 -4.0065891e+01 
1.8042352e+02 4.2996246e-02 -5.4345257e+01 
4.7708096e+01 -5.6883764e+00 -5.5293236e+01 
2.9761102e+02 5.7276688e+00 -2.2535629e+01 
3.4492319e+02 3.5931580e+00 -3.6123795e+01 
1.9120670e+02 8.8465601e-01 -4.7431065e+01 
4.6006828e+01 -2.8743114e+00 -4.8967125e+01 
3.1280939e+02 4.8009682e+00 -2.3202600e+01 
3.6348956e+02 3.4757857e+00 -3.3814445e+01 
2.0038753e+02 1.7451652e+00 -4.2909523e+01 
4.6102810e+01 -7.4786955e-01 -4.4251572e+01 
3.2504068e+02 4.6033025e+00 -2.4213043e+01 
3.7800470e+02 3.7877789e+00 -3.2717804e+01 
2.0768462e+02 2.6727569e+00 -3.9816410e+01 
4.6410172e+01 7.4946737e-01 -4.0480503e+01 
3.3516592e+02 5.2250228e+00 -2.5556995e+01 
3.8918103e+02 4.5732403e+00 -3.2238312e+01 
2.1275780e+02 3.6542325e+00 -3.7353905e+01 
4.6136154e+01 1.6835673e+00 -3.6993126e+01 
3.4327008e+02 6.5310402e+00 -2.7184214e+01 
3.9696283e+02 5.8060489e+00 -3.1788479e+01 
2.1528947e+02 4.4917769e+00 -3.4669277e+01 
4.4919296e+01 1.9559833e+00 -3.3082985e+01 
3.4871078e+02 8.1187019e+00 -2.9150326e+01 
4.0048215e+02 7.1598597e+00 -3.0851852e+01 
2.1480905e+02 4.8696446e+00 -3.0806866e+01 
4.2763554e+01 1.1407496e+00 -2.7876978e+01 
3.5033240e+02 9.0710840e+00 -3.2034420e+01 
3.9742468e+02 8.4890718e+00 -2.9231409e+01 
2.1006178e+02 4.3111954e+00 -2.4212650e+01 
4.0719761e+01 -1.7489756e+00 -2.0118713e+01 
3.4754025e+02 7.6916733e+00 -3.8242290e+01 
3.8069241e+02 8.7398567e+00 -2.6616751e+01 
1.9921953e+02 9.0823311e-01 -1.1810616e+01 
4.3485565e+01 -9.1213999e+00 -8.8728638e+00 
3.4125656e+02 -7.3187823e+00 -4.3713459e+01 
3.4393048e+02 -1.0485323e+01 -2.2140551e+01 
1.8469733e+02 -1.6678942e+01 1.8473314e+00 
5.7610424e+01 -2.0607248e+01 -4.7086224e-01 
3.1862122e+02 -5.0807924e+00 -4.7630146e+01 
2.8115787e+02 -1.2705874e+01 -1.8728424e+01 
1.6794431e+02 -1.1802145e+01 5.3392243e+00 
8.0198166e+01 -7.1308103e+00 1.4653776e+00 
CELL_DATA 39
FIELD FieldData 1
PK2_STRESS_VECTOR 3 39  float
2.6609680e+02 -3.4066326e+01 -2.5704039e+01 
1.5959235e+02 -2.3109657e+01 -6.8512787e+01 
1.3548048e+02 -5.2233064e-01 -9.1446091e+01 
3.2907962e+02 8.5846109e+00 -2.7254963e+01 
2.0741231e+02 6.0752406e+00 -6.8825371e+01 
1.1779926e+02 -6.9085736e+00 -7.7599007e+01 
3.7711786e+02 7.7518220e+00 -3.1228100e+01 
2.3872249e+02 3.3311882e+00 -5.4519455e+01 
1.1277663e+02 -4.1632972e+00 -6.2844990e+01 
4.1136435e+02 6.0732265e+00 -2.9500462e+01 
2.5917419e+02 2.7828989e+00 -4.6236057e+01 
1.1500134e+02 -1.8264623e+00 -5.3719112e+01 
4.3672141e+02 4.9058604e+00 -2.8256851e+01 
2.7499918e+02 3.0556421e+00 -4.1150021e+01 
1.1901962e+02 3.8491543e-02 -4.7661476e+01 
4.5641324e+02 4.4087834e+00 -2.8056334e+01 
2.8753296e+02 3.5325253e+00 -3.8174541e+01 
1.2296890e+02 1.4199659e+00 -4.3391617e+01 
4.7220407e+02 4.7036090e+00 -2.8547731e+01 
2.9716489e+02 4.2878065e+00 -3.6398579e+01 
1.2576445e+02 2.5568688e+00 -4.0028290e+01 
4.8470590e+02 5.7427750e+00 -2.9376379e+01 
3.0388843e+02 5.4509873e+00 -3.4926266e+01 
1.2680635e+02 3.4788351e+00 -3.6781643e+01 
4.9347122e+02 7.2997708e+00 -3.0246906e+01 
3.0732101e+02 6.6390738e+00 -3.2934727e+01 
1.2579726e+02 3.7961805e+00 -3.2700695e+01 
4.9698621e+02 9.1264954e+00 -3.0996614e+01 
3.0645050e+02 7.6133528e+00 -2.9523388e+01 
1.2258092e+02 3.1478662e+00 -2.6634527e+01 
4.9235965e+02 1.0194800e+01 -3.2891308e+01 
2.9834930e+02 9.6258154e+00 -2.3703917e+01 
1.1727309e+02 -4.8550150e-01 -1.5423774e+01 
4.7480823e+02 1.2511801e+01 -4.2236004e+01 
2.7229361e+02 5.2821312e+00 -9.1838617e+00 
1.1546904e+02 -1.1850868e+01 5.2080383e+00 
4.3346750e+02 -4.1673996e+01 -4.1808796e+01 
2.2484669e+02 -4.2380737e+01 8.4887400e+00 
1.3008264e+02 -2.9654362e+01 1.5707155e+01 
