# vtk DataFile Version 4.0
vtk output
ASCII
DATASET UNSTRUCTURED_GRID
POINTS 756 float
-2.9729620e+01 -1.5095949e+02 0.0000000e+00 
-2.5426258e+01 -1.2953200e+02 0.0000000e+00 
-2.1140835e+01 -1.0810162e+02 0.0000000e+00 
-1.6884268e+01 -8.6652740e+01 0.0000000e+00 
-1.2656427e+01 -6.5164612e+01 0.0000000e+00 
-8.4506130e+00 -4.3606449e+01 0.0000000e+00 
-4.2339330e+00 -2.1917717e+01 0.0000000e+00 
0.0000000e+00 0.0000000e+00 0.0000000e+00 
8.8173789e-01 -1.5711447e+02 0.0000000e+00 
5.1921096e+00 -1.3568533e+02 0.0000000e+00 
9.4727392e+00 -1.1424876e+02 0.0000000e+00 
1.3717972e+01 -9.2798080e+01 0.0000000e+00 
1.7929977e+01 -7.1330894e+01 0.0000000e+00 
2.2120014e+01 -4.9852356e+01 0.0000000e+00 
2.6309675e+01 -2.8389347e+01 0.0000000e+00 
3.0643528e+01 -7.0270281e+00 0.0000000e+00 
3.1508404e+01 -1.6331081e+02 0.0000000e+00 
3.5834076e+01 -1.4189313e+02 0.0000000e+00 
4.0115047e+01 -1.2047420e+02 0.0000000e+00 
4.4359711e+01 -9.9051422e+01 0.0000000e+00 
4.8578522e+01 -7.7628372e+01 0.0000000e+00 
5.2789757e+01 -5.6213329e+01 0.0000000e+00 
5.7033501e+01 -3.4814789e+01 0.0000000e+00 
6.1310371e+01 -1.3396749e+01 0.0000000e+00 
6.2180260e+01 -1.6954323e+02 0.0000000e+00 
6.6516060e+01 -1.4814156e+02 0.0000000e+00 
7.0800148e+01 -1.2674043e+02 0.0000000e+00 
7.5047745e+01 -1.0533979e+02 0.0000000e+00 
7.9273163e+01 -8.3941101e+01 0.0000000e+00 
8.3493439e+01 -6.2545101e+01 0.0000000e+00 
8.7719078e+01 -4.1144817e+01 0.0000000e+00 
9.1955505e+01 -1.9737339e+01 0.0000000e+00 
9.2909973e+01 -1.7578331e+02 0.0000000e+00 
9.7242470e+01 -1.5439754e+02 0.0000000e+00 
1.0152351e+02 -1.3301019e+02 0.0000000e+00 
1.0576767e+02 -1.1162219e+02 0.0000000e+00 
1.0998811e+02 -9.0233269e+01 0.0000000e+00 
1.1419560e+02 -6.8841324e+01 0.0000000e+00 
1.1839841e+02 -4.7443665e+01 0.0000000e+00 
1.2259975e+02 -2.6035328e+01 0.0000000e+00 
1.2369617e+02 -1.8200533e+02 0.0000000e+00 
1.2801219e+02 -1.6063393e+02 0.0000000e+00 
1.3227989e+02 -1.3925772e+02 0.0000000e+00 
1.3651079e+02 -1.1787782e+02 0.0000000e+00 
1.4071526e+02 -9.6493904e+01 0.0000000e+00 
1.4490211e+02 -7.5104645e+01 0.0000000e+00 
1.4907791e+02 -5.3707764e+01 0.0000000e+00 
1.5324686e+02 -3.2301334e+01 0.0000000e+00 
1.5453305e+02 -1.8819159e+02 0.0000000e+00 
1.5882234e+02 -1.6683307e+02 0.0000000e+00 
1.6306682e+02 -1.4546681e+02 0.0000000e+00 
1.6727525e+02 -1.2409397e+02 0.0000000e+00 
1.7145598e+02 -1.0271463e+02 0.0000000e+00 
1.7561630e+02 -8.1328026e+01 0.0000000e+00 
1.7976231e+02 -5.9933014e+01 0.0000000e+00 
1.8389874e+02 -3.8528385e+01 0.0000000e+00 
1.8541502e+02 -1.9433026e+02 0.0000000e+00 
1.8966995e+02 -1.7298352e+02 0.0000000e+00 
1.9388319e+02 -1.5162674e+02 0.0000000e+00 
1.9806169e+02 -1.3026105e+02 0.0000000e+00 
2.0221225e+02 -1.0888683e+02 0.0000000e+00 
2.0634119e+02 -8.7503845e+01 0.0000000e+00 
2.1045416e+02 -6.6111504e+01 0.0000000e+00 
2.1455621e+02 -4.4709213e+01 0.0000000e+00 
2.1633786e+02 -2.0041267e+02 0.0000000e+00 
2.2055252e+02 -1.7907683e+02 0.0000000e+00 
2.2472824e+02 -1.5772923e+02 0.0000000e+00 
2.2887077e+02 -1.3637097e+02 0.0000000e+00 
2.3298579e+02 -1.1500261e+02 0.0000000e+00 
2.3707881e+02 -9.3624184e+01 0.0000000e+00 
2.4115512e+02 -7.2235405e+01 0.0000000e+00 
2.4521980e+02 -5.0835915e+01 0.0000000e+00 
2.4729829e+02 -2.0643156e+02 0.0000000e+00 
2.5146779e+02 -1.8510588e+02 0.0000000e+00 
2.5560103e+02 -1.6376714e+02 0.0000000e+00 
2.5970279e+02 -1.4241652e+02 0.0000000e+00 
2.6377777e+02 -1.2105463e+02 0.0000000e+00 
2.6783069e+02 -9.9681587e+01 0.0000000e+00 
2.7186639e+02 -7.8297173e+01 0.0000000e+00 
2.7588995e+02 -5.6901016e+01 0.0000000e+00 
2.7829324e+02 -2.1238048e+02 0.0000000e+00 
2.8241354e+02 -1.9106418e+02 0.0000000e+00 
2.8650052e+02 -1.6973392e+02 0.0000000e+00 
2.9055780e+02 -1.4839101e+02 0.0000000e+00 
2.9458899e+02 -1.2703607e+02 0.0000000e+00 
2.9859796e+02 -1.0566914e+02 0.0000000e+00 
3.0258905e+02 -8.4289803e+01 0.0000000e+00 
3.0656720e+02 -6.2897488e+01 0.0000000e+00 
3.0931931e+02 -2.1825386e+02 0.0000000e+00 
3.1338733e+02 -1.9694598e+02 0.0000000e+00 
3.1742542e+02 -1.7562369e+02 0.0000000e+00 
3.2143558e+02 -1.5428841e+02 0.0000000e+00 
3.2542017e+02 -1.3294070e+02 0.0000000e+00 
3.2938187e+02 -1.1158045e+02 0.0000000e+00 
3.3332431e+02 -9.0206833e+01 0.0000000e+00 
3.3725226e+02 -6.8818771e+01 0.0000000e+00 
3.4037231e+02 -2.2404764e+02 0.0000000e+00 
3.4438641e+02 -2.0274706e+02 0.0000000e+00 
3.4837415e+02 -1.8143187e+02 0.0000000e+00 
3.5233582e+02 -1.6010361e+02 0.0000000e+00 
3.5627203e+02 -1.3876305e+02 0.0000000e+00 
3.6018390e+02 -1.1740976e+02 0.0000000e+00 
3.6407373e+02 -9.6042389e+01 0.0000000e+00 
3.6794592e+02 -7.4658806e+01 0.0000000e+00 
3.7144760e+02 -2.2976059e+02 0.0000000e+00 
3.7540753e+02 -2.0846587e+02 0.0000000e+00 
3.7934430e+02 -1.8715610e+02 0.0000000e+00 
3.8325726e+02 -1.6583316e+02 0.0000000e+00 
3.8714529e+02 -1.4449847e+02 0.0000000e+00 
3.9100626e+02 -1.2315213e+02 0.0000000e+00 
3.9483975e+02 -1.0179121e+02 0.0000000e+00 
3.9864941e+02 -8.0412041e+01 0.0000000e+00 
4.0254245e+02 -2.3539459e+02 0.0000000e+00 
4.0644708e+02 -2.1410489e+02 0.0000000e+00 
4.1033102e+02 -1.9279738e+02 0.0000000e+00 
4.1419693e+02 -1.7147574e+02 0.0000000e+00 
4.1804004e+02 -1.5014459e+02 0.0000000e+00 
4.2185257e+02 -1.2880338e+02 0.0000000e+00 
4.2562698e+02 -1.0744971e+02 0.0000000e+00 
4.2936398e+02 -8.6073441e+01 0.0000000e+00 
4.3365961e+02 -2.4095044e+02 0.0000000e+00 
4.3750369e+02 -2.1966707e+02 0.0000000e+00 
4.4132663e+02 -1.9836241e+02 0.0000000e+00 
4.4514517e+02 -1.7703612e+02 0.0000000e+00 
4.4895795e+02 -1.5570163e+02 0.0000000e+00 
4.5272995e+02 -1.3436917e+02 0.0000000e+00 
4.5643954e+02 -1.1301493e+02 0.0000000e+00 
4.6009180e+02 -9.1636292e+01 0.0000000e+00 
4.6480588e+02 -2.4641640e+02 0.0000000e+00 
4.6857880e+02 -2.2514182e+02 0.0000000e+00 
4.7233450e+02 -2.0384790e+02 0.0000000e+00 
4.7608847e+02 -1.8253929e+02 0.0000000e+00 
4.7991113e+02 -1.6122206e+02 0.0000000e+00 
4.8363757e+02 -1.3986513e+02 0.0000000e+00 
4.8726355e+02 -1.1848886e+02 0.0000000e+00 
4.9084329e+02 -9.7080978e+01 0.0000000e+00 
4.9597946e+02 -2.5176532e+02 0.0000000e+00 
4.9967044e+02 -2.3049622e+02 0.0000000e+00 
5.0335095e+02 -2.0920570e+02 0.0000000e+00 
5.0703271e+02 -1.8789514e+02 0.0000000e+00 
5.1070340e+02 -1.6654604e+02 0.0000000e+00 
5.2716742e+02 -2.5698154e+02 0.0000000e+00 
5.3077063e+02 -2.3571352e+02 0.0000000e+00 
5.3436664e+02 -2.1441905e+02 0.0000000e+00 
5.3795056e+02 -1.9309413e+02 0.0000000e+00 
5.4151300e+02 -1.7173624e+02 0.0000000e+00 
5.5835980e+02 -2.6206998e+02 0.0000000e+00 
5.6187616e+02 -2.4080280e+02 0.0000000e+00 
5.6538196e+02 -2.1950778e+02 0.0000000e+00 
5.6887274e+02 -1.9818344e+02 0.0000000e+00 
5.7234497e+02 -1.7682990e+02 0.0000000e+00 
5.8955731e+02 -2.6704041e+02 0.0000000e+00 
5.9298981e+02 -2.4577589e+02 0.0000000e+00 
5.9640765e+02 -2.2448462e+02 0.0000000e+00 
5.9980988e+02 -2.0316525e+02 0.0000000e+00 
6.0319653e+02 -1.8181821e+02 0.0000000e+00 
6.2076593e+02 -2.7189700e+02 0.0000000e+00 
6.2411584e+02 -2.5063692e+02 0.0000000e+00 
6.2744739e+02 -2.2935046e+02 0.0000000e+00 
6.3076227e+02 -2.0803647e+02 0.0000000e+00 
6.3406268e+02 -1.8669475e+02 0.0000000e+00 
6.5199133e+02 -2.7663870e+02 0.0000000e+00 
6.5525751e+02 -2.5538408e+02 0.0000000e+00 
6.5850201e+02 -2.3410268e+02 0.0000000e+00 
6.6172833e+02 -2.1279327e+02 0.0000000e+00 
6.6494000e+02 -1.9145541e+02 0.0000000e+00 
6.8323767e+02 -2.8126196e+02 0.0000000e+00 
6.8641736e+02 -2.6001367e+02 0.0000000e+00 
6.8957214e+02 -2.3873741e+02 0.0000000e+00 
6.9270685e+02 -2.1743185e+02 0.0000000e+00 
6.9582635e+02 -1.9609647e+02 0.0000000e+00 
7.1450891e+02 -2.8576230e+02 0.0000000e+00 
7.1759808e+02 -2.6452130e+02 0.0000000e+00 
7.2065845e+02 -2.4325044e+02 0.0000000e+00 
7.2369690e+02 -2.2194818e+02 0.0000000e+00 
7.2672003e+02 -2.0061412e+02 0.0000000e+00 
7.4581006e+02 -2.9013382e+02 0.0000000e+00 
7.4880273e+02 -2.6890152e+02 0.0000000e+00 
7.5176208e+02 -2.4763680e+02 0.0000000e+00 
7.5469781e+02 -2.2633778e+02 0.0000000e+00 
7.5761896e+02 -2.0500424e+02 0.0000000e+00 
7.7714771e+02 -2.9436703e+02 0.0000000e+00 
7.8003552e+02 -2.7314551e+02 0.0000000e+00 
7.8288556e+02 -2.5188910e+02 0.0000000e+00 
7.8570972e+02 -2.3059535e+02 0.0000000e+00 
7.8852057e+02 -2.0926277e+02 0.0000000e+00 
8.0852661e+02 -2.9844672e+02 0.0000000e+00 
8.1130170e+02 -2.7723758e+02 0.0000000e+00 
8.1403552e+02 -2.5599512e+02 0.0000000e+00 
8.1673615e+02 -2.3471347e+02 0.0000000e+00 
8.1942163e+02 -2.1338612e+02 0.0000000e+00 
8.3994299e+02 -3.0235611e+02 0.0000000e+00 
8.4260315e+02 -2.8115750e+02 0.0000000e+00 
8.4522626e+02 -2.5993027e+02 0.0000000e+00 
8.4779474e+02 -2.3867670e+02 0.0000000e+00 
8.5032202e+02 -2.1737038e+02 0.0000000e+00 
8.7138245e+02 -3.0609396e+02 0.0000000e+00 
8.7393512e+02 -2.8490033e+02 0.0000000e+00 
8.7645367e+02 -2.6367590e+02 0.0000000e+00 
8.7892200e+02 -2.4242192e+02 0.0000000e+00 
8.8122864e+02 -2.2114427e+02 0.0000000e+00 
8.8377795e+02 -1.9981488e+02 0.0000000e+00 
8.8646027e+02 -1.7846071e+02 0.0000000e+00 
8.8918268e+02 -1.5707251e+02 0.0000000e+00 
9.0283698e+02 -3.0968655e+02 0.0000000e+00 
9.0529224e+02 -2.8849820e+02 0.0000000e+00 
9.0771216e+02 -2.6727710e+02 0.0000000e+00 
9.1008508e+02 -2.4602309e+02 0.0000000e+00 
9.1244421e+02 -2.2476585e+02 0.0000000e+00 
9.1486700e+02 -2.0350653e+02 0.0000000e+00 
9.1737598e+02 -1.8219408e+02 0.0000000e+00 
9.1992053e+02 -1.6082106e+02 0.0000000e+00 
9.3431671e+02 -3.1315610e+02 0.0000000e+00 
9.3667896e+02 -2.9197858e+02 0.0000000e+00 
9.3900385e+02 -2.7077258e+02 0.0000000e+00 
9.4130597e+02 -2.4954466e+02 0.0000000e+00 
9.4360889e+02 -2.2829782e+02 0.0000000e+00 
9.4593390e+02 -2.0702562e+02 0.0000000e+00 
9.4829156e+02 -1.8571751e+02 0.0000000e+00 
9.5067621e+02 -1.6435992e+02 0.0000000e+00 
9.6583478e+02 -3.1649411e+02 0.0000000e+00 
9.6809821e+02 -2.9532831e+02 0.0000000e+00 
9.7032941e+02 -2.7413425e+02 0.0000000e+00 
9.7254279e+02 -2.5291394e+02 0.0000000e+00 
9.7475201e+02 -2.3166728e+02 0.0000000e+00 
[...]
POINT_DATA 756
FIELD FieldData 3
DISPLACEMENT 3 756  float
-2.9729620e+01 -9.5948398e-01 0.0000000e+00 
-2.5426258e+01 -9.6057469e-01 0.0000000e+00 
-2.1140835e+01 -9.5876360e-01 0.0000000e+00 
-1.6884268e+01 -9.3845546e-01 0.0000000e+00 
-1.2656427e+01 -8.7889600e-01 0.0000000e+00 
-8.4506130e+00 -7.4930608e-01 0.0000000e+00 
-4.2339330e+00 -4.8914573e-01 0.0000000e+00 
0.0000000e+00 0.0000000e+00 0.0000000e+00 
-2.9730507e+01 -7.1144714e+00 0.0000000e+00 
-2.5420135e+01 -7.1139045e+00 0.0000000e+00 
-2.1139505e+01 -7.1059103e+00 0.0000000e+00 
-1.6894274e+01 -7.0837927e+00 0.0000000e+00 
-1.2682267e+01 -7.0451765e+00 0.0000000e+00 
-8.4922304e+00 -6.9952140e+00 0.0000000e+00 
-4.3025699e+00 -6.9607759e+00 0.0000000e+00 
3.1283610e-02 -7.0270281e+00 0.0000000e+00 
-2.9716085e+01 -1.3310802e+01 0.0000000e+00 
-2.5390413e+01 -1.3321694e+01 0.0000000e+00 
-2.1109442e+01 -1.3331344e+01 0.0000000e+00 
-1.6864779e+01 -1.3337133e+01 0.0000000e+00 
-1.2645968e+01 -1.3342656e+01 0.0000000e+00 
-8.4347315e+00 -1.3356187e+01 0.0000000e+00 
-4.1909900e+00 -1.3386216e+01 0.0000000e+00 
8.5880026e-02 -1.3396749e+01 0.0000000e+00 
-2.9656477e+01 -1.9543224e+01 0.0000000e+00 
-2.5320679e+01 -1.9570124e+01 0.0000000e+00 
-2.1036587e+01 -1.9597567e+01 0.0000000e+00 
-1.6788986e+01 -1.9625507e+01 0.0000000e+00 
-1.2563568e+01 -1.9655388e+01 0.0000000e+00 
-8.3432951e+00 -1.9687960e+01 0.0000000e+00 
-4.1176553e+00 -1.9716246e+01 0.0000000e+00 
1.1877156e-01 -1.9737339e+01 0.0000000e+00 
-2.9539011e+01 -2.5783310e+01 0.0000000e+00 
-2.5206512e+01 -2.5826105e+01 0.0000000e+00 
-2.0925470e+01 -2.5867342e+01 0.0000000e+00 
-1.6681311e+01 -2.5907904e+01 0.0000000e+00 
-1.2460873e+01 -2.5947554e+01 0.0000000e+00 
-8.2533770e+00 -2.5984179e+01 0.0000000e+00 
-4.0505733e+00 -2.6015093e+01 0.0000000e+00 
1.5077114e-01 -2.6035328e+01 0.0000000e+00 
-2.9365047e+01 -3.2005329e+01 0.0000000e+00 
-2.5049026e+01 -3.2062504e+01 0.0000000e+00 
-2.0781324e+01 -3.2114857e+01 0.0000000e+00 
-1.6550438e+01 -3.2163536e+01 0.0000000e+00 
-1.2345971e+01 -3.2208191e+01 0.0000000e+00 
-8.1591024e+00 -3.2247498e+01 0.0000000e+00 
-3.9833193e+00 -3.2279190e+01 0.0000000e+00 
1.8563721e-01 -3.2301334e+01 0.0000000e+00 
-2.9140419e+01 -3.8191586e+01 0.0000000e+00 
-2.4851131e+01 -3.8261646e+01 0.0000000e+00 
-2.0606653e+01 -3.8323959e+01 0.0000000e+00 
-1.6398218e+01 -3.8379688e+01 0.0000000e+00 
-1.2217495e+01 -3.8428917e+01 0.0000000e+00 
-8.0571604e+00 -3.8470879e+01 0.0000000e+00 
-3.9111488e+00 -3.8504440e+01 0.0000000e+00 
2.2526735e-01 -3.8528385e+01 0.0000000e+00 
-2.8870689e+01 -4.4330269e+01 0.0000000e+00 
-2.4615757e+01 -4.4412090e+01 0.0000000e+00 
-2.0402523e+01 -4.4483879e+01 0.0000000e+00 
-1.6224026e+01 -4.4546764e+01 0.0000000e+00 
-1.2073466e+01 -4.4601116e+01 0.0000000e+00 
-7.9445291e+00 -4.4646702e+01 0.0000000e+00 
-3.8315477e+00 -4.4682934e+01 0.0000000e+00 
2.7049932e-01 -4.4709213e+01 0.0000000e+00 
-2.8560091e+01 -5.0412682e+01 0.0000000e+00 
-2.4345436e+01 -5.0505405e+01 0.0000000e+00 
-2.0169724e+01 -5.0586369e+01 0.0000000e+00 
-1.6027193e+01 -5.0656685e+01 0.0000000e+00 
-1.1912168e+01 -5.0716896e+01 0.0000000e+00 
-7.8191452e+00 -5.0767036e+01 0.0000000e+00 
-3.7428420e+00 -5.0806835e+01 0.0000000e+00 
3.2183936e-01 -5.0835915e+01 0.0000000e+00 
-2.8211918e+01 -5.6431568e+01 0.0000000e+00 
-2.4042418e+01 -5.6534454e+01 0.0000000e+00 
-1.9909168e+01 -5.6624279e+01 0.0000000e+00 
-1.5807409e+01 -5.6702229e+01 0.0000000e+00 
-1.1732441e+01 -5.6768909e+01 0.0000000e+00 
-7.6795278e+00 -5.6824448e+01 0.0000000e+00 
-3.6438134e+00 -5.6868607e+01 0.0000000e+00 
3.7974322e-01 -5.6901016e+01 0.0000000e+00 
-2.7829212e+01 -6.2380486e+01 0.0000000e+00 
-2.3708916e+01 -6.2492744e+01 0.0000000e+00 
-1.9621937e+01 -6.2591057e+01 0.0000000e+00 
-1.5564660e+01 -6.2676720e+01 0.0000000e+00 
-1.1533471e+01 -6.2750359e+01 0.0000000e+00 
-7.5244899e+00 -6.2811993e+01 0.0000000e+00 
-3.5333848e+00 -6.2861233e+01 0.0000000e+00 
4.4475248e-01 -6.2897488e+01 0.0000000e+00 
-2.7415392e+01 -6.8253853e+01 0.0000000e+00 
-2.3347353e+01 -6.8374557e+01 0.0000000e+00 
-1.9309286e+01 -6.8480827e+01 0.0000000e+00 
-1.5299104e+01 -6.8574120e+01 0.0000000e+00 
-1.1314539e+01 -6.8654999e+01 0.0000000e+00 
-7.3528318e+00 -6.8723312e+01 0.0000000e+00 
-3.4103768e+00 -6.8778259e+01 0.0000000e+00 
5.1755023e-01 -6.8818771e+01 0.0000000e+00 
-2.6974630e+01 -7.4047646e+01 0.0000000e+00 
-2.2960522e+01 -7.4175629e+01 0.0000000e+00 
-1.8972801e+01 -7.4289009e+01 0.0000000e+00 
-1.5011119e+01 -7.4389328e+01 0.0000000e+00 
-1.1074909e+01 -7.4477341e+01 0.0000000e+00 
-7.1630502e+00 -7.4552620e+01 0.0000000e+00 
-3.2732077e+00 -7.4613815e+01 0.0000000e+00 
5.9898990e-01 -7.4658806e+01 0.0000000e+00 
-2.6511581e+01 -7.9760582e+01 0.0000000e+00 
-2.2551655e+01 -7.9894432e+01 0.0000000e+00 
-1.8614899e+01 -8.0013245e+01 0.0000000e+00 
-1.4701911e+01 -8.0118874e+01 0.0000000e+00 
-1.0813888e+01 -8.0212761e+01 0.0000000e+00 
-6.9529381e+00 -8.0294991e+01 0.0000000e+00 
-3.1194320e+00 -8.0362640e+01 0.0000000e+00 
6.9023776e-01 -8.0412041e+01 0.0000000e+00 
-2.6028992e+01 -8.5394592e+01 0.0000000e+00 
-2.2124336e+01 -8.5533463e+01 0.0000000e+00 
-1.8240408e+01 -8.5654510e+01 0.0000000e+00 
-1.4374489e+01 -8.5761459e+01 0.0000000e+00 
-1.0531398e+01 -8.5858871e+01 0.0000000e+00 
-6.7188621e+00 -8.5946243e+01 0.0000000e+00 
-2.9444442e+00 -8.6021133e+01 0.0000000e+00 
7.9254675e-01 -8.6073441e+01 0.0000000e+00 
-2.5524065e+01 -9.0950432e+01 0.0000000e+00 
-2.1679979e+01 -9.1095634e+01 0.0000000e+00 
-1.7857029e+01 -9.1219551e+01 0.0000000e+00 
-1.4038508e+01 -9.1321838e+01 0.0000000e+00 
-1.0225717e+01 -9.1415916e+01 0.0000000e+00 
-6.4537282e+00 -9.1512024e+01 0.0000000e+00 
-2.7441194e+00 -9.1586357e+01 0.0000000e+00 
9.0813619e-01 -9.1636292e+01 0.0000000e+00 
-2.4990034e+01 -9.6416397e+01 0.0000000e+00 
-2.1217121e+01 -9.6570381e+01 0.0000000e+00 
-1.7461401e+01 -9.6705032e+01 0.0000000e+00 
-1.3707437e+01 -9.6824997e+01 0.0000000e+00 
-9.8847866e+00 -9.6936340e+01 0.0000000e+00 
-6.1583529e+00 -9.7007980e+01 0.0000000e+00 
-2.5323625e+00 -9.7060295e+01 0.0000000e+00 
1.0473628e+00 -9.7080978e+01 0.0000000e+00 
-2.4428698e+01 -1.0176532e+02 0.0000000e+00 
-2.0737720e+01 -1.0192480e+02 0.0000000e+00 
-1.7057224e+01 -1.0206284e+02 0.0000000e+00 
-1.3375453e+01 -1.0218086e+02 0.0000000e+00 
-9.7047548e+00 -1.0226031e+02 0.0000000e+00 
-2.3853006e+01 -1.0698154e+02 0.0000000e+00 
-2.0249748e+01 -1.0714209e+02 0.0000000e+00 
-1.6653772e+01 -1.0727620e+02 0.0000000e+00 
-1.3069860e+01 -1.0737985e+02 0.0000000e+00 
-9.5073833e+00 -1.0745052e+02 0.0000000e+00 
-2.3272863e+01 -1.1206999e+02 0.0000000e+00 
-1.9756464e+01 -1.1223136e+02 0.0000000e+00 
-1.6250690e+01 -1.1236492e+02 0.0000000e+00 
-1.2759922e+01 -1.1246916e+02 0.0000000e+00 
-9.2876568e+00 -1.1254418e+02 0.0000000e+00 
-2.2687557e+01 -1.1704039e+02 0.0000000e+00 
-1.9255108e+01 -1.1720448e+02 0.0000000e+00 
-1.5837242e+01 -1.1734177e+02 0.0000000e+00 
-1.2435006e+01 -1.1745097e+02 0.0000000e+00 
-9.0483580e+00 -1.1753249e+02 0.0000000e+00 
-2.2091185e+01 -1.2189700e+02 0.0000000e+00 
-1.8741302e+01 -1.2206548e+02 0.0000000e+00 
-1.5409754e+01 -1.2220761e+02 0.0000000e+00 
-1.2094854e+01 -1.2232218e+02 0.0000000e+00 
-8.7944822e+00 -1.2240904e+02 0.0000000e+00 
-2.1478062e+01 -1.2663872e+02 0.0000000e+00 
-1.8211899e+01 -1.2681265e+02 0.0000000e+00 
-1.4967352e+01 -1.2695982e+02 0.0000000e+00 
-1.1741029e+01 -1.2707899e+02 0.0000000e+00 
-8.5293837e+00 -1.2716969e+02 0.0000000e+00 
-2.0843979e+01 -1.3126198e+02 0.0000000e+00 
-1.7664282e+01 -1.3144223e+02 0.0000000e+00 
-1.4509499e+01 -1.3159456e+02 0.0000000e+00 
-1.1374778e+01 -1.3171756e+02 0.0000000e+00 
-8.2552557e+00 -1.3181076e+02 0.0000000e+00 
-2.0184988e+01 -1.3576230e+02 0.0000000e+00 
-1.7095819e+01 -1.3594986e+02 0.0000000e+00 
-1.4035432e+01 -1.3610759e+02 0.0000000e+00 
-1.0996958e+01 -1.3623389e+02 0.0000000e+00 
-7.9738712e+00 -1.3632841e+02 0.0000000e+00 
-1.9496067e+01 -1.4013382e+02 0.0000000e+00 
-1.6503363e+01 -1.4033008e+02 0.0000000e+00 
-1.3544013e+01 -1.4049394e+02 0.0000000e+00 
-1.0608279e+01 -1.4062350e+02 0.0000000e+00 
-7.6871567e+00 -1.4071854e+02 0.0000000e+00 
-1.8770668e+01 -1.4436703e+02 0.0000000e+00 
-1.5882830e+01 -1.4457408e+02 0.0000000e+00 
-1.3032825e+01 -1.4474623e+02 0.0000000e+00 
-1.0208679e+01 -1.4488107e+02 0.0000000e+00 
-7.3977947e+00 -1.4497707e+02 0.0000000e+00 
-1.8003986e+01 -1.4844672e+02 0.0000000e+00 
-1.5228941e+01 -1.4866615e+02 0.0000000e+00 
-1.2495106e+01 -1.4885226e+02 0.0000000e+00 
-9.7944851e+00 -1.4899918e+02 0.0000000e+00 
-7.1090102e+00 -1.4910040e+02 0.0000000e+00 
-1.7199871e+01 -1.5235609e+02 0.0000000e+00 
-1.4539707e+01 -1.5258607e+02 0.0000000e+00 
-1.1916624e+01 -1.5278741e+02 0.0000000e+00 
-9.3481379e+00 -1.5296242e+02 0.0000000e+00 
-6.8208561e+00 -1.5308466e+02 0.0000000e+00 
-1.6372648e+01 -1.5609398e+02 0.0000000e+00 
-1.3819998e+01 -1.5632889e+02 0.0000000e+00 
-1.1301430e+01 -1.5653305e+02 0.0000000e+00 
-8.8331337e+00 -1.5670763e+02 0.0000000e+00 
-6.5264683e+00 -1.5685855e+02 0.0000000e+00 
-3.9771636e+00 -1.5695773e+02 0.0000000e+00 
-1.2948289e+00 -1.5703214e+02 0.0000000e+00 
1.4275665e+00 -1.5707251e+02 0.0000000e+00 
-1.5530349e+01 -1.5968654e+02 0.0000000e+00 
-1.3075127e+01 -1.5992676e+02 0.0000000e+00 
-1.0655200e+01 -1.6013423e+02 0.0000000e+00 
-8.2822371e+00 -1.6030881e+02 0.0000000e+00 
-5.9231176e+00 -1.6048015e+02 0.0000000e+00 
-3.5003471e+00 -1.6064938e+02 0.0000000e+00 
-9.9137592e-01 -1.6076550e+02 0.0000000e+00 
1.5531579e+00 -1.6082106e+02 0.0000000e+00 
-1.4662892e+01 -1.6315610e+02 0.0000000e+00 
-1.2300647e+01 -1.6340717e+02 0.0000000e+00 
-9.9757433e+00 -1.6362971e+02 0.0000000e+00 
-7.6736398e+00 -1.6383038e+02 0.0000000e+00 
-5.3706751e+00 -1.6401212e+02 0.0000000e+00 
-3.0456846e+00 -1.6416847e+02 0.0000000e+00 
-6.8803024e-01 -1.6428894e+02 0.0000000e+00 
1.6966258e+00 -1.6435992e+02 0.0000000e+00 
-1.3757068e+01 -1.6649411e+02 0.0000000e+00 
-1.1493617e+01 -1.6675688e+02 0.0000000e+00 
-9.2624588e+00 -1.6699138e+02 0.0000000e+00 
-7.0490379e+00 -1.6719966e+02 0.0000000e+00 
-4.8398094e+00 -1.6738156e+02 0.0000000e+00 
-2.6233134e+00 -1.6753378e+02 0.0000000e+00 
-3.9383414e-01 -1.6765001e+02 0.0000000e+00 
1.8476502e+00 -1.6772466e+02 0.0000000e+00 
-1.2812158e+01 -1.6967914e+02 0.0000000e+00 
-1.0657866e+01 -1.6995126e+02 0.0000000e+00 
-8.5305967e+00 -1.7019176e+02 0.0000000e+00 
-6.4201503e+00 -1.7040247e+02 0.0000000e+00 
-4.3173532e+00 -1.7058302e+02 0.0000000e+00 
-2.2151792e+00 -1.7073131e+02 0.0000000e+00 
-1.0957926e-01 -1.7084419e+02 0.0000000e+00 
1.9999410e+00 -1.7091838e+02 0.0000000e+00 
-1.1835570e+01 -1.7269470e+02 0.0000000e+00 
-9.7995548e+00 -1.7297375e+02 0.0000000e+00 
-7.7854829e+00 -1.7321844e+02 0.0000000e+00 
-5.7869649e+00 -1.7343039e+02 0.0000000e+00 
-3.7979407e+00 -1.7360966e+02 0.0000000e+00 
-1.8135356e+00 -1.7375520e+02 0.0000000e+00 
1.6937932e-01 -1.7386530e+02 0.0000000e+00 
2.1520240e+00 -1.7393829e+02 0.0000000e+00 
-1.0835274e+01 -1.7553186e+02 0.0000000e+00 
-8.9230556e+00 -1.7581631e+02 0.0000000e+00 
-7.0287452e+00 -1.7606454e+02 0.0000000e+00 
-5.1483917e+00 -1.7627788e+02 0.0000000e+00 
-3.2779665e+00 -1.7645668e+02 0.0000000e+00 
-1.4139836e+00 -1.7660062e+02 0.0000000e+00 
4.4613278e-01 -1.7670888e+02 0.0000000e+00 
2.3039322e+00 -1.7678064e+02 0.0000000e+00 
-9.8168430e+00 -1.7818626e+02 0.0000000e+00 
-8.0316362e+00 -1.7847507e+02 0.0000000e+00 
-6.2613783e+00 -1.7872646e+02 0.0000000e+00 
-4.5034785e+00 -1.7894148e+02 0.0000000e+00 
-2.7551613e+00 -1.7912064e+02 0.0000000e+00 
-1.0138376e+00 -1.7926398e+02 0.0000000e+00 
7.2265148e-01 -1.7937122e+02 0.0000000e+00 
2.4559460e+00 -1.7944206e+02 0.0000000e+00 
-8.7838936e+00 -1.8065543e+02 0.0000000e+00 
-7.1277094e+00 -1.8094788e+02 0.0000000e+00 
-5.4843140e+00 -1.8120213e+02 0.0000000e+00 
-3.8518429e+00 -1.8141904e+02 0.0000000e+00 
-2.2282560e+00 -1.8159909e+02 0.0000000e+00 
-6.1154050e-01 -1.8174255e+02 0.0000000e+00 
1.0001404e+00 -1.8184946e+02 0.0000000e+00 
2.6083860e+00 -1.8191974e+02 0.0000000e+00 
-7.7387924e+00 -1.8293764e+02 0.0000000e+00 
-6.2130547e+00 -1.8323325e+02 0.0000000e+00 
-4.6984668e+00 -1.8349011e+02 0.0000000e+00 
-3.1935549e+00 -1.8370892e+02 0.0000000e+00 
-1.6967096e+00 -1.8389020e+02 0.0000000e+00 
-2.0629181e-01 -1.8403424e+02 0.0000000e+00 
1.2792854e+00 -1.8414125e+02 0.0000000e+00 
2.7615175e+00 -1.8421130e+02 0.0000000e+00 
-6.6831913e+00 -1.8503152e+02 0.0000000e+00 
-5.2890344e+00 -1.8532991e+02 0.0000000e+00 
-3.9047067e+00 -1.8558914e+02 0.0000000e+00 
-2.5289586e+00 -1.8580980e+02 0.0000000e+00 
-1.1604463e+00 -1.8599240e+02 0.0000000e+00 
2.0221673e-01 -1.8613727e+02 0.0000000e+00 
1.5604171e+00 -1.8624466e+02 0.0000000e+00 
2.9155197e+00 -1.8631476e+02 0.0000000e+00 
-5.6183457e+00 -1.8693578e+02 0.0000000e+00 
-4.3567519e+00 -1.8723662e+02 0.0000000e+00 
-3.1038508e+00 -1.8749799e+02 0.0000000e+00 
-1.8585408e+00 -1.8772040e+02 0.0000000e+00 
-6.1966020e-01 -1.8790431e+02 0.0000000e+00 
6.1399090e-01 -1.8805011e+02 0.0000000e+00 
1.8436313e+00 -1.8815805e+02 0.0000000e+00 
3.0704863e+00 -1.8822833e+02 0.0000000e+00 
-4.5453086e+00 -1.8864920e+02 0.0000000e+00 
-3.4171615e+00 -1.8895222e+02 0.0000000e+00 
-2.2966709e+00 -1.8921548e+02 0.0000000e+00 
-1.1828544e+00 -1.8943948e+02 0.0000000e+00 
-7.4693285e-02 -1.8962466e+02 0.0000000e+00 
1.0288603e+00 -1.8977139e+02 0.0000000e+00 
2.1288755e+00 -1.8987993e+02 0.0000000e+00 
3.2264373e+00 -1.8995049e+02 0.0000000e+00 
-3.4650333e+00 -1.9017064e+02 0.0000000e+00 
-2.4711337e+00 -1.9047557e+02 0.0000000e+00 
-1.4839061e+00 -1.9074051e+02 0.0000000e+00 
-5.0247973e-01 -1.9096594e+02 0.0000000e+00 
4.7403729e-01 -1.9115227e+02 0.0000000e+00 
1.4465566e+00 -1.9129987e+02 0.0000000e+00 
2.4160078e+00 -1.9140900e+02 0.0000000e+00 
3.3833368e+00 -1.9147987e+02 0.0000000e+00 
-2.3784304e+00 -1.9149901e+02 0.0000000e+00 
-1.5194968e+00 -1.9180562e+02 0.0000000e+00 
-6.6627467e-01 -1.9207201e+02 0.0000000e+00 
1.8199407e-01 -1.9229868e+02 0.0000000e+00 
1.0260783e+00 -1.9248602e+02 0.0000000e+00 
1.8667599e+00 -1.9263440e+02 0.0000000e+00 
2.7048340e+00 -1.9274408e+02 0.0000000e+00 
3.5411088e+00 -1.9281528e+02 0.0000000e+00 
-1.2863961e+00 -1.9263339e+02 0.0000000e+00 
-5.6305867e-01 -1.9294139e+02 0.0000000e+00 
1.5551874e-01 -1.9320903e+02 0.0000000e+00 
8.6997676e-01 -1.9343674e+02 0.0000000e+00 
1.5809611e+00 -1.9362495e+02 0.0000000e+00 
2.2891252e+00 -1.9377402e+02 0.0000000e+00 
2.9951320e+00 -1.9388419e+02 0.0000000e+00 
3.6996531e+00 -1.9395567e+02 0.0000000e+00 
-1.8982558e-01 -1.9357291e+02 0.0000000e+00 
3.9738050e-01 -1.9388208e+02 0.0000000e+00 
9.8077613e-01 -1.9415071e+02 0.0000000e+00 
1.5608796e+00 -1.9437929e+02 0.0000000e+00 
2.1382113e+00 -1.9456822e+02 0.0000000e+00 
2.7132959e+00 -1.9471783e+02 0.0000000e+00 
3.2866640e+00 -1.9482841e+02 0.0000000e+00 
3.8588526e+00 -1.9490016e+02 0.0000000e+00 
9.1038221e-01 -1.9431689e+02 0.0000000e+00 
1.3610225e+00 -1.9462697e+02 0.0000000e+00 
1.8088031e+00 -1.9489638e+02 0.0000000e+00 
2.2541161e+00 -1.9512564e+02 0.0000000e+00 
2.6973538e+00 -1.9531512e+02 0.0000000e+00 
3.1389112e+00 -1.9546518e+02 0.0000000e+00 
3.5791867e+00 -1.9557608e+02 0.0000000e+00 
4.0185823e+00 -1.9564803e+02 0.0000000e+00 
2.0133228e+00 -1.9486481e+02 0.0000000e+00 
2.3270679e+00 -1.9517551e+02 0.0000000e+00 
2.6389065e+00 -1.9544548e+02 0.0000000e+00 
2.9491012e+00 -1.9567522e+02 0.0000000e+00 
3.2579145e+00 -1.9586510e+02 0.0000000e+00 
3.5656099e+00 -1.9601549e+02 0.0000000e+00 
3.8724532e+00 -1.9612662e+02 0.0000000e+00 
4.1787124e+00 -1.9619870e+02 0.0000000e+00 
3.1180871e+00 -1.9521622e+02 0.0000000e+00 
3.2947159e+00 -1.9552730e+02 0.0000000e+00 
3.4703934e+00 -1.9579762e+02 0.0000000e+00 
3.6452513e+00 -1.9602763e+02 0.0000000e+00 
3.8194201e+00 -1.9621777e+02 0.0000000e+00 
3.9930313e+00 -1.9636833e+02 0.0000000e+00 
4.1662169e+00 -1.9647961e+02 0.0000000e+00 
4.3391113e+00 -1.9655179e+02 0.0000000e+00 
4.2237616e+00 -1.9537090e+02 0.0000000e+00 
4.2631631e+00 -1.9568211e+02 0.0000000e+00 
4.3025708e+00 -1.9595255e+02 0.0000000e+00 
4.3419833e+00 -1.9618266e+02 0.0000000e+00 
4.3813987e+00 -1.9637288e+02 0.0000000e+00 
4.4208155e+00 -1.9652350e+02 0.0000000e+00 
4.4602318e+00 -1.9663483e+02 0.0000000e+00 
4.4996471e+00 -1.9670703e+02 0.0000000e+00 
5.3294306e+00 -1.9532878e+02 0.0000000e+00 
5.2316055e+00 -1.9563986e+02 0.0000000e+00 
5.1347456e+00 -1.9591019e+02 0.0000000e+00 
5.0387154e+00 -1.9614020e+02 0.0000000e+00 
4.9433804e+00 -1.9633034e+02 0.0000000e+00 
4.8486042e+00 -1.9648091e+02 0.0000000e+00 
4.7542520e+00 -1.9659219e+02 0.0000000e+00 
4.6601887e+00 -1.9666438e+02 0.0000000e+00 
6.4341755e+00 -1.9508994e+02 0.0000000e+00 
6.1992369e+00 -1.9540063e+02 0.0000000e+00 
5.9662232e+00 -1.9567061e+02 0.0000000e+00 
5.7348657e+00 -1.9590034e+02 0.0000000e+00 
5.5048938e+00 -1.9609024e+02 0.0000000e+00 
5.2760396e+00 -1.9624063e+02 0.0000000e+00 
5.0480323e+00 -1.9635178e+02 0.0000000e+00 
4.8206034e+00 -1.9642389e+02 0.0000000e+00 
7.5370774e+00 -1.9465460e+02 0.0000000e+00 
7.1652513e+00 -1.9496465e+02 0.0000000e+00 
6.7963104e+00 -1.9523407e+02 0.0000000e+00 
6.4298515e+00 -1.9546332e+02 0.0000000e+00 
6.0654707e+00 -1.9565282e+02 0.0000000e+00 
5.7027650e+00 -1.9580290e+02 0.0000000e+00 
5.3413296e+00 -1.9591383e+02 0.0000000e+00 
4.9807615e+00 -1.9598579e+02 0.0000000e+00 
8.6372156e+00 -1.9402318e+02 0.0000000e+00 
8.1288404e+00 -1.9433232e+02 0.0000000e+00 
7.6243119e+00 -1.9460095e+02 0.0000000e+00 
7.1230912e+00 -1.9482954e+02 0.0000000e+00 
6.6246414e+00 -1.9501849e+02 0.0000000e+00 
6.1284237e+00 -1.9516814e+02 0.0000000e+00 
5.6338997e+00 -1.9527875e+02 0.0000000e+00 
5.1405320e+00 -1.9535052e+02 0.0000000e+00 
9.7336702e+00 -1.9319626e+02 0.0000000e+00 
9.0891981e+00 -1.9350423e+02 0.0000000e+00 
8.4495335e+00 -1.9377184e+02 0.0000000e+00 
7.8140035e+00 -1.9399956e+02 0.0000000e+00 
7.1819367e+00 -1.9418781e+02 0.0000000e+00 
6.5526595e+00 -1.9433690e+02 0.0000000e+00 
5.9254999e+00 -1.9444711e+02 0.0000000e+00 
5.2997847e+00 -1.9451863e+02 0.0000000e+00 
1.0825520e+01 -1.9217453e+02 0.0000000e+00 
1.0045515e+01 -1.9248108e+02 0.0000000e+00 
9.2712793e+00 -1.9274745e+02 0.0000000e+00 
8.5020065e+00 -1.9297412e+02 0.0000000e+00 
7.7368879e+00 -1.9316148e+02 0.0000000e+00 
6.9751167e+00 -1.9330991e+02 0.0000000e+00 
6.2158866e+00 -1.9341962e+02 0.0000000e+00 
5.4583893e+00 -1.9349083e+02 0.0000000e+00 
1.1911843e+01 -1.9095889e+02 0.0000000e+00 
1.0996984e+01 -1.9126376e+02 0.0000000e+00 
1.0088857e+01 -1.9152867e+02 0.0000000e+00 
9.1865177e+00 -1.9175409e+02 0.0000000e+00 
8.2890263e+00 -1.9194044e+02 0.0000000e+00 
7.3954396e+00 -1.9208806e+02 0.0000000e+00 
6.5048165e+00 -1.9219719e+02 0.0000000e+00 
5.6162162e+00 -1.9226804e+02 0.0000000e+00 
1.2991719e+01 -1.8955042e+02 0.0000000e+00 
1.1942799e+01 -1.8985333e+02 0.0000000e+00 
1.0901569e+01 -1.9011655e+02 0.0000000e+00 
9.8669558e+00 -1.9034053e+02 0.0000000e+00 
8.8378820e+00 -1.9052570e+02 0.0000000e+00 
7.8132715e+00 -1.9067238e+02 0.0000000e+00 
6.7920480e+00 -1.9078085e+02 0.0000000e+00 
5.7731352e+00 -1.9085127e+02 0.0000000e+00 
1.4064227e+01 -1.8795029e+02 0.0000000e+00 
1.2882148e+01 -1.8825099e+02 0.0000000e+00 
1.1708722e+01 -1.8851230e+02 0.0000000e+00 
1.0542739e+01 -1.8873465e+02 0.0000000e+00 
9.3829880e+00 -1.8891849e+02 0.0000000e+00 
8.2282572e+00 -1.8906412e+02 0.0000000e+00 
7.0773377e+00 -1.8917181e+02 0.0000000e+00 
5.9290175e+00 -1.8924178e+02 0.0000000e+00 
1.5128447e+01 -1.8615988e+02 0.0000000e+00 
1.3814226e+01 -1.8645813e+02 0.0000000e+00 
1.2509621e+01 -1.8671729e+02 0.0000000e+00 
1.1213285e+01 -1.8693784e+02 0.0000000e+00 
9.9238739e+00 -1.8712016e+02 0.0000000e+00 
8.6400414e+00 -1.8726462e+02 0.0000000e+00 
7.3604426e+00 -1.8737146e+02 0.0000000e+00 
6.0837326e+00 -1.8744089e+02 0.0000000e+00 
1.6183455e+01 -1.8418076e+02 0.0000000e+00 
1.4738225e+01 -1.8447627e+02 0.0000000e+00 
1.3303571e+01 -1.8473306e+02 0.0000000e+00 