# vtk DataFile Version 4.0
vtk output
ASCII
DATASET UNSTRUCTURED_GRID
POINTS 2 float
0.0000000e+00 0.0000000e+00 0.0000000e+00 
3.0099104e+03 0.0000000e+00 0.0000000e+00 
POINT_DATA 2
FIELD FieldData 3
DISPLACEMENT 3 2  float
0.0000000e+00 0.0000000e+00 0.0000000e+00 
9.9103289e+00 0.0000000e+00 0.0000000e+00 
REACTION 3 2  float
6.4028427e-10 1.3500000e+06 0.0000000e+00 
-2.9103830e-09 1.3500000e+06 0.0000000e+00 
PK2_STRESS_VECTOR 3 2  float
2.3798033e+01 -5.5283924e+01 -1.5666052e+02 
2.3789803e+01 -5.5341984e+01 1.5667120e+02 
