# vtk DataFile Version 4.0
vtk output
ASCII
DATASET UNSTRUCTURED_GRID
POINTS 1485 float
-2.9729620e+01 -1.5095949e+02 0.0000000e+00 
-2.5426258e+01 -1.2953200e+02 0.0000000e+00 
-2.1140835e+01 -1.0810162e+02 0.0000000e+00 
-1.6884268e+01 -8.6652740e+01 0.0000000e+00 
-1.2656427e+01 -6.5164612e+01 0.0000000e+00 
-8.4506130e+00 -4.3606449e+01 0.0000000e+00 
-4.2339330e+00 -2.1917717e+01 0.0000000e+00 
0.0000000e+00 0.0000000e+00 0.0000000e+00 
4.5060639e+00 2.1011675e+01 0.0000000e+00 
8.8644762e+00 4.2217041e+01 0.0000000e+00 
1.3188034e+01 6.3527512e+01 0.0000000e+00 
1.7513653e+01 8.4895477e+01 0.0000000e+00 
2.1853380e+01 1.0629664e+02 0.0000000e+00 
2.6211689e+01 1.2771495e+02 0.0000000e+00 
3.0583815e+01 1.4913773e+02 0.0000000e+00 
8.8173789e-01 -1.5711447e+02 0.0000000e+00 
5.1921096e+00 -1.3568533e+02 0.0000000e+00 
9.4727392e+00 -1.1424876e+02 0.0000000e+00 
1.3717972e+01 -9.2798080e+01 0.0000000e+00 
1.7929977e+01 -7.1330894e+01 0.0000000e+00 
2.2120014e+01 -4.9852356e+01 0.0000000e+00 
2.6309675e+01 -2.8389347e+01 0.0000000e+00 
3.0643528e+01 -7.0270281e+00 0.0000000e+00 
3.5134800e+01 1.4461997e+01 0.0000000e+00 
3.9489079e+01 3.5867283e+01 0.0000000e+00 
4.3810081e+01 5.7253189e+01 0.0000000e+00 
4.8130276e+01 7.8645020e+01 0.0000000e+00 
5.2464897e+01 1.0004852e+02 0.0000000e+00 
5.6820530e+01 1.2146283e+02 0.0000000e+00 
6.1197521e+01 1.4288406e+02 0.0000000e+00 
3.1508404e+01 -1.6331081e+02 0.0000000e+00 
3.5834076e+01 -1.4189313e+02 0.0000000e+00 
4.0115047e+01 -1.2047420e+02 0.0000000e+00 
4.4359711e+01 -9.9051422e+01 0.0000000e+00 
4.8578522e+01 -7.7628372e+01 0.0000000e+00 
5.2789757e+01 -5.6213329e+01 0.0000000e+00 
5.7033501e+01 -3.4814789e+01 0.0000000e+00 
6.1310371e+01 -1.3396749e+01 0.0000000e+00 
6.5689705e+01 8.0227757e+00 0.0000000e+00 
7.0059715e+01 2.9466528e+01 0.0000000e+00 
7.4394012e+01 5.0899761e+01 0.0000000e+00 
7.8719711e+01 7.2324989e+01 0.0000000e+00 
8.3054428e+01 9.3748756e+01 0.0000000e+00 
8.7409683e+01 1.1517474e+02 0.0000000e+00 
9.1795532e+01 1.3660258e+02 0.0000000e+00 
6.2180260e+01 -1.6954323e+02 0.0000000e+00 
6.6516060e+01 -1.4814156e+02 0.0000000e+00 
7.0800148e+01 -1.2674043e+02 0.0000000e+00 
7.5047745e+01 -1.0533979e+02 0.0000000e+00 
7.9273163e+01 -8.3941101e+01 0.0000000e+00 
8.3493439e+01 -6.2545101e+01 0.0000000e+00 
8.7719078e+01 -4.1144817e+01 0.0000000e+00 
9.1955505e+01 -1.9737339e+01 0.0000000e+00 
9.6296066e+01 1.6901263e+00 0.0000000e+00 
1.0063073e+02 2.3122152e+01 0.0000000e+00 
1.0495903e+02 4.4560162e+01 0.0000000e+00 
1.0928352e+02 6.5997490e+01 0.0000000e+00 
1.1361625e+02 8.7433281e+01 0.0000000e+00 
1.1796944e+02 1.0886850e+02 0.0000000e+00 
1.2235619e+02 1.3030391e+02 0.0000000e+00 
9.2909973e+01 -1.7578331e+02 0.0000000e+00 
9.7242470e+01 -1.5439754e+02 0.0000000e+00 
1.0152351e+02 -1.3301019e+02 0.0000000e+00 
1.0576767e+02 -1.1162219e+02 0.0000000e+00 
1.0998811e+02 -9.0233269e+01 0.0000000e+00 
1.1419560e+02 -6.8841324e+01 0.0000000e+00 
1.1839841e+02 -4.7443665e+01 0.0000000e+00 
1.2259975e+02 -2.6035328e+01 0.0000000e+00 
1.2690897e+02 -4.6121211e+00 0.0000000e+00 
1.3121616e+02 1.6818249e+01 0.0000000e+00 
1.3552269e+02 3.8253311e+01 0.0000000e+00 
1.3983342e+02 5.9691643e+01 0.0000000e+00 
1.4415544e+02 8.1131317e+01 0.0000000e+00 
1.4849849e+02 1.0257178e+02 0.0000000e+00 
1.5287352e+02 1.2401371e+02 0.0000000e+00 
1.2369617e+02 -1.8200533e+02 0.0000000e+00 
1.2801219e+02 -1.6063393e+02 0.0000000e+00 
1.3227989e+02 -1.3925772e+02 0.0000000e+00 
1.3651079e+02 -1.1787782e+02 0.0000000e+00 
1.4071526e+02 -9.6493904e+01 0.0000000e+00 
1.4490211e+02 -7.5104645e+01 0.0000000e+00 
1.4907791e+02 -5.3707764e+01 0.0000000e+00 
1.5324686e+02 -3.2301334e+01 0.0000000e+00 
1.5752657e+02 -1.0879375e+01 0.0000000e+00 
1.6180481e+02 1.0548464e+01 0.0000000e+00 
1.6608554e+02 3.1981798e+01 0.0000000e+00 
1.7037363e+02 5.3419422e+01 0.0000000e+00 
1.7467549e+02 7.4860443e+01 0.0000000e+00 
1.7899869e+02 9.6304413e+01 0.0000000e+00 
1.8335138e+02 1.1775183e+02 0.0000000e+00 
1.5453305e+02 -1.8819159e+02 0.0000000e+00 
1.5882234e+02 -1.6683307e+02 0.0000000e+00 
1.6306682e+02 -1.4546681e+02 0.0000000e+00 
1.6727525e+02 -1.2409397e+02 0.0000000e+00 
1.7145598e+02 -1.0271463e+02 0.0000000e+00 
1.7561630e+02 -8.1328026e+01 0.0000000e+00 
1.7976231e+02 -5.9933014e+01 0.0000000e+00 
1.8389874e+02 -3.8528385e+01 0.0000000e+00 
1.8814682e+02 -1.7107834e+01 0.0000000e+00 
1.9239366e+02 4.3187299e+00 0.0000000e+00 
1.9664404e+02 2.5751019e+01 0.0000000e+00 
2.0090326e+02 4.7188618e+01 0.0000000e+00 
2.0517722e+02 6.8631073e+01 0.0000000e+00 
2.0947232e+02 9.0078285e+01 0.0000000e+00 
2.1379500e+02 1.1153061e+02 0.0000000e+00 
1.8541502e+02 -1.9433026e+02 0.0000000e+00 
1.8966995e+02 -1.7298352e+02 0.0000000e+00 
1.9388319e+02 -1.5162674e+02 0.0000000e+00 
1.9806169e+02 -1.3026105e+02 0.0000000e+00 
2.0221225e+02 -1.0888683e+02 0.0000000e+00 
2.0634119e+02 -8.7503845e+01 0.0000000e+00 
2.1045416e+02 -6.6111504e+01 0.0000000e+00 
2.1455621e+02 -4.4709213e+01 0.0000000e+00 
2.1876913e+02 -2.3289804e+01 0.0000000e+00 
2.2298076e+02 -1.8640560e+00 0.0000000e+00 
2.2719623e+02 1.9568024e+01 0.0000000e+00 
2.3142096e+02 4.1006313e+01 0.0000000e+00 
2.3566061e+02 6.2450718e+01 0.0000000e+00 
2.3992101e+02 8.3901276e+01 0.0000000e+00 
2.4420784e+02 1.0535824e+02 0.0000000e+00 
2.1633786e+02 -2.0041267e+02 0.0000000e+00 
2.2055252e+02 -1.7907683e+02 0.0000000e+00 
2.2472824e+02 -1.5772923e+02 0.0000000e+00 
2.2887077e+02 -1.3637097e+02 0.0000000e+00 
2.3298579e+02 -1.1500261e+02 0.0000000e+00 
2.3707881e+02 -9.3624184e+01 0.0000000e+00 
2.4115512e+02 -7.2235405e+01 0.0000000e+00 
2.4521980e+02 -5.0835915e+01 0.0000000e+00 
2.4939334e+02 -2.9417669e+01 0.0000000e+00 
2.5356532e+02 -7.9924574e+00 0.0000000e+00 
2.5774103e+02 1.3439841e+01 0.0000000e+00 
2.6192596e+02 3.4879303e+01 0.0000000e+00 
2.6612567e+02 5.6325993e+01 0.0000000e+00 
2.7034573e+02 7.7780006e+01 0.0000000e+00 
2.7459167e+02 9.9241486e+01 0.0000000e+00 
2.4729829e+02 -2.0643156e+02 0.0000000e+00 
2.5146779e+02 -1.8510588e+02 0.0000000e+00 
2.5560103e+02 -1.6376714e+02 0.0000000e+00 
2.5970279e+02 -1.4241652e+02 0.0000000e+00 
2.6377777e+02 -1.2105463e+02 0.0000000e+00 
2.6783069e+02 -9.9681587e+01 0.0000000e+00 
2.7186639e+02 -7.8297173e+01 0.0000000e+00 
2.7588995e+02 -5.6901016e+01 0.0000000e+00 
2.8001956e+02 -3.5484035e+01 0.0000000e+00 
2.8414719e+02 -1.4059298e+01 0.0000000e+00 
2.8827817e+02 7.3734145e+00 0.0000000e+00 
2.9241809e+02 2.8814272e+01 0.0000000e+00 
2.9657248e+02 5.0263409e+01 0.0000000e+00 
3.0074698e+02 7.1720932e+01 0.0000000e+00 
3.0494714e+02 9.3186890e+01 0.0000000e+00 
2.7829324e+02 -2.1238048e+02 0.0000000e+00 
2.8241354e+02 -1.9106418e+02 0.0000000e+00 
2.8650052e+02 -1.6973392e+02 0.0000000e+00 
2.9055780e+02 -1.4839101e+02 0.0000000e+00 
2.9458899e+02 -1.2703607e+02 0.0000000e+00 
2.9859796e+02 -1.0566914e+02 0.0000000e+00 
3.0258905e+02 -8.4289803e+01 0.0000000e+00 
3.0656720e+02 -6.2897488e+01 0.0000000e+00 
3.1064816e+02 -4.1481907e+01 0.0000000e+00 
3.1472650e+02 -2.0057642e+01 0.0000000e+00 
3.1880768e+02 1.3755854e+00 0.0000000e+00 
3.2289734e+02 2.2817978e+01 0.0000000e+00 
3.2700119e+02 4.4269669e+01 0.0000000e+00 
3.3112494e+02 6.5730736e+01 0.0000000e+00 
3.3527432e+02 8.7201202e+01 0.0000000e+00 
3.0931931e+02 -2.1825386e+02 0.0000000e+00 
3.1338733e+02 -1.9694598e+02 0.0000000e+00 
3.1742542e+02 -1.7562369e+02 0.0000000e+00 
3.2143558e+02 -1.5428841e+02 0.0000000e+00 
3.2542017e+02 -1.3294070e+02 0.0000000e+00 
3.2938187e+02 -1.1158045e+02 0.0000000e+00 
3.3332431e+02 -9.0206833e+01 0.0000000e+00 
3.3725226e+02 -6.8818771e+01 0.0000000e+00 
3.4127963e+02 -4.7404648e+01 0.0000000e+00 
3.4530356e+02 -2.5980747e+01 0.0000000e+00 
3.4932968e+02 -4.5467763e+00 0.0000000e+00 
3.5336386e+02 1.6897406e+01 0.0000000e+00 
3.5741187e+02 3.8351837e+01 0.0000000e+00 
3.6147961e+02 5.9816547e+01 0.0000000e+00 
3.6557303e+02 8.1291565e+01 0.0000000e+00 
3.4037231e+02 -2.2404764e+02 0.0000000e+00 
3.4438641e+02 -2.0274706e+02 0.0000000e+00 
3.4837415e+02 -1.8143187e+02 0.0000000e+00 
3.5233582e+02 -1.6010361e+02 0.0000000e+00 
3.5627203e+02 -1.3876305e+02 0.0000000e+00 
3.6018390e+02 -1.1740976e+02 0.0000000e+00 
3.6407373e+02 -9.6042389e+01 0.0000000e+00 
3.6794592e+02 -7.4658806e+01 0.0000000e+00 
3.7191452e+02 -5.3245953e+01 0.0000000e+00 
3.7587851e+02 -3.1821957e+01 0.0000000e+00 
3.7984409e+02 -1.0386602e+01 0.0000000e+00 
3.8381744e+02 1.1059971e+01 0.0000000e+00 
3.8780450e+02 3.2517578e+01 0.0000000e+00 
3.9181104e+02 5.3986130e+01 0.0000000e+00 
3.9584299e+02 7.5465744e+01 0.0000000e+00 
3.7144760e+02 -2.2976059e+02 0.0000000e+00 
3.7540753e+02 -2.0846587e+02 0.0000000e+00 
3.7934430e+02 -1.8715610e+02 0.0000000e+00 
3.8325726e+02 -1.6583316e+02 0.0000000e+00 
3.8714529e+02 -1.4449847e+02 0.0000000e+00 
3.9100626e+02 -1.2315213e+02 0.0000000e+00 
3.9483975e+02 -1.0179121e+02 0.0000000e+00 
3.9864941e+02 -8.0412041e+01 0.0000000e+00 
4.0255310e+02 -5.8999779e+01 0.0000000e+00 
4.0645087e+02 -3.7574429e+01 0.0000000e+00 
4.1035007e+02 -1.6136345e+01 0.0000000e+00 
4.1425748e+02 5.3138342e+00 0.0000000e+00 
4.1817889e+02 2.6775335e+01 0.0000000e+00 
4.2211945e+02 4.8247978e+01 0.0000000e+00 
4.2608438e+02 6.9732162e+01 0.0000000e+00 
4.0254245e+02 -2.3539459e+02 0.0000000e+00 
4.0644708e+02 -2.1410489e+02 0.0000000e+00 
4.1033102e+02 -1.9279738e+02 0.0000000e+00 
4.1419693e+02 -1.7147574e+02 0.0000000e+00 
4.1804004e+02 -1.5014459e+02 0.0000000e+00 
4.2185257e+02 -1.2880338e+02 0.0000000e+00 
4.2562698e+02 -1.0744971e+02 0.0000000e+00 
4.2936398e+02 -8.6073441e+01 0.0000000e+00 
4.3319482e+02 -6.4659668e+01 0.0000000e+00 
4.3701862e+02 -4.3230606e+01 0.0000000e+00 
4.4084543e+02 -2.1787027e+01 0.0000000e+00 
4.4468286e+02 -3.3175558e-01 0.0000000e+00 
4.4853503e+02 2.1134222e+01 0.0000000e+00 
4.5240567e+02 4.2611004e+01 0.0000000e+00 
4.5629861e+02 6.4099480e+01 0.0000000e+00 
4.3365961e+02 -2.4095044e+02 0.0000000e+00 
[...]
POINT_DATA 1485
FIELD FieldData 3
DISPLACEMENT 3 1485  float
-2.9729620e+01 -9.5948398e-01 0.0000000e+00 
-2.5426258e+01 -9.6057469e-01 0.0000000e+00 
-2.1140835e+01 -9.5876360e-01 0.0000000e+00 
-1.6884268e+01 -9.3845546e-01 0.0000000e+00 
-1.2656427e+01 -8.7889600e-01 0.0000000e+00 
-8.4506130e+00 -7.4930608e-01 0.0000000e+00 
-4.2339330e+00 -4.8914573e-01 0.0000000e+00 
0.0000000e+00 0.0000000e+00 0.0000000e+00 
4.5060639e+00 -4.1689587e-01 0.0000000e+00 
8.8644762e+00 -6.4009994e-01 0.0000000e+00 
1.3188034e+01 -7.5820351e-01 0.0000000e+00 
1.7513653e+01 -8.1880480e-01 0.0000000e+00 
2.1853380e+01 -8.4621954e-01 0.0000000e+00 
2.6211689e+01 -8.5648161e-01 0.0000000e+00 
3.0583815e+01 -8.6228013e-01 0.0000000e+00 
-2.9730507e+01 -7.1144714e+00 0.0000000e+00 
-2.5420135e+01 -7.1139045e+00 0.0000000e+00 
-2.1139505e+01 -7.1059103e+00 0.0000000e+00 
-1.6894274e+01 -7.0837927e+00 0.0000000e+00 
-1.2682267e+01 -7.0451765e+00 0.0000000e+00 
-8.4922304e+00 -6.9952140e+00 0.0000000e+00 
-4.3025699e+00 -6.9607759e+00 0.0000000e+00 
3.1283610e-02 -7.0270281e+00 0.0000000e+00 
4.5225558e+00 -6.9665737e+00 0.0000000e+00 
8.8768330e+00 -6.9898596e+00 0.0000000e+00 
1.3197837e+01 -7.0325251e+00 0.0000000e+00 
1.7518030e+01 -7.0692673e+00 0.0000000e+00 
2.1852652e+01 -7.0943427e+00 0.0000000e+00 
2.6208286e+01 -7.1086011e+00 0.0000000e+00 
3.0585276e+01 -7.1159310e+00 0.0000000e+00 
-2.9716085e+01 -1.3310802e+01 0.0000000e+00 
-2.5390413e+01 -1.3321694e+01 0.0000000e+00 
-2.1109442e+01 -1.3331344e+01 0.0000000e+00 
-1.6864779e+01 -1.3337133e+01 0.0000000e+00 
-1.2645968e+01 -1.3342656e+01 0.0000000e+00 
-8.4347315e+00 -1.3356187e+01 0.0000000e+00 
-4.1909900e+00 -1.3386216e+01 0.0000000e+00 
8.5880026e-02 -1.3396749e+01 0.0000000e+00 
4.4652123e+00 -1.3405796e+01 0.0000000e+00 
8.8352242e+00 -1.3390615e+01 0.0000000e+00 
1.3169520e+01 -1.3385954e+01 0.0000000e+00 
1.7495224e+01 -1.3389294e+01 0.0000000e+00 
2.1829941e+01 -1.3394101e+01 0.0000000e+00 
2.6185196e+01 -1.3396693e+01 0.0000000e+00 
3.0571041e+01 -1.3397421e+01 0.0000000e+00 
-2.9656477e+01 -1.9543224e+01 0.0000000e+00 
-2.5320679e+01 -1.9570124e+01 0.0000000e+00 
-2.1036587e+01 -1.9597567e+01 0.0000000e+00 
-1.6788986e+01 -1.9625507e+01 0.0000000e+00 
-1.2563568e+01 -1.9655388e+01 0.0000000e+00 
-8.3432951e+00 -1.9687960e+01 0.0000000e+00 
-4.1176553e+00 -1.9716246e+01 0.0000000e+00 
1.1877156e-01 -1.9737339e+01 0.0000000e+00 
4.4593282e+00 -1.9738445e+01 0.0000000e+00 
8.7939978e+00 -1.9734991e+01 0.0000000e+00 
1.3122299e+01 -1.9725555e+01 0.0000000e+00 
1.7446787e+01 -1.9716799e+01 0.0000000e+00 
2.1779516e+01 -1.9709574e+01 0.0000000e+00 
2.6132711e+01 -1.9702927e+01 0.0000000e+00 
3.0519461e+01 -1.9696095e+01 0.0000000e+00 
-2.9539011e+01 -2.5783310e+01 0.0000000e+00 
-2.5206512e+01 -2.5826105e+01 0.0000000e+00 
-2.0925470e+01 -2.5867342e+01 0.0000000e+00 
-1.6681311e+01 -2.5907904e+01 0.0000000e+00 
-1.2460873e+01 -2.5947554e+01 0.0000000e+00 
-8.2533770e+00 -2.5984179e+01 0.0000000e+00 
-4.0505733e+00 -2.6015093e+01 0.0000000e+00 
1.5077114e-01 -2.6035328e+01 0.0000000e+00 
4.4599924e+00 -2.6040693e+01 0.0000000e+00 
8.7671757e+00 -2.6038895e+01 0.0000000e+00 
1.3073711e+01 -2.6032404e+01 0.0000000e+00 
1.7384445e+01 -2.6022644e+01 0.0000000e+00 
2.1706457e+01 -2.6011541e+01 0.0000000e+00 
2.6049507e+01 -2.5999653e+01 0.0000000e+00 
3.0424540e+01 -2.5986292e+01 0.0000000e+00 
-2.9365047e+01 -3.2005329e+01 0.0000000e+00 
-2.5049026e+01 -3.2062504e+01 0.0000000e+00 
-2.0781324e+01 -3.2114857e+01 0.0000000e+00 
-1.6550438e+01 -3.2163536e+01 0.0000000e+00 
-1.2345971e+01 -3.2208191e+01 0.0000000e+00 
-8.1591024e+00 -3.2247498e+01 0.0000000e+00 
-3.9833193e+00 -3.2279190e+01 0.0000000e+00 
1.8563721e-01 -3.2301334e+01 0.0000000e+00 
4.4653387e+00 -3.2307945e+01 0.0000000e+00 
8.7435923e+00 -3.2308678e+01 0.0000000e+00 
1.3024319e+01 -3.2303917e+01 0.0000000e+00 
1.7312395e+01 -3.2294865e+01 0.0000000e+00 
2.1614260e+01 -3.2282413e+01 0.0000000e+00 
2.5937460e+01 -3.2267017e+01 0.0000000e+00 
3.0290154e+01 -3.2248165e+01 0.0000000e+00 
-2.9140419e+01 -3.8191586e+01 0.0000000e+00 
-2.4851131e+01 -3.8261646e+01 0.0000000e+00 
-2.0606653e+01 -3.8323959e+01 0.0000000e+00 
-1.6398218e+01 -3.8379688e+01 0.0000000e+00 
-1.2217495e+01 -3.8428917e+01 0.0000000e+00 
-8.0571604e+00 -3.8470879e+01 0.0000000e+00 
-3.9111488e+00 -3.8504440e+01 0.0000000e+00 
2.2526735e-01 -3.8528385e+01 0.0000000e+00 
4.4733481e+00 -3.8536404e+01 0.0000000e+00 
8.7201872e+00 -3.8538414e+01 0.0000000e+00 
1.2970573e+01 -3.8534695e+01 0.0000000e+00 
1.7229797e+01 -3.8525669e+01 0.0000000e+00 
2.1503750e+01 -3.8511780e+01 0.0000000e+00 
2.5798843e+01 -3.8493149e+01 0.0000000e+00 
3.0121525e+01 -3.8469391e+01 0.0000000e+00 
-2.8870689e+01 -4.4330269e+01 0.0000000e+00 
-2.4615757e+01 -4.4412090e+01 0.0000000e+00 
-2.0402523e+01 -4.4483879e+01 0.0000000e+00 
-1.6224026e+01 -4.4546764e+01 0.0000000e+00 
-1.2073466e+01 -4.4601116e+01 0.0000000e+00 
-7.9445291e+00 -4.4646702e+01 0.0000000e+00 
-3.8315477e+00 -4.4682934e+01 0.0000000e+00 
2.7049932e-01 -4.4709213e+01 0.0000000e+00 
4.4834266e+00 -4.4718376e+01 0.0000000e+00 
8.6950369e+00 -4.4721199e+01 0.0000000e+00 
1.2910509e+01 -4.4717690e+01 0.0000000e+00 
1.7135241e+01 -4.4707973e+01 0.0000000e+00 
2.1374897e+01 -4.4692139e+01 0.0000000e+00 
2.5635290e+01 -4.4670151e+01 0.0000000e+00 
2.9922131e+01 -4.4641762e+01 0.0000000e+00 
-2.8560091e+01 -5.0412682e+01 0.0000000e+00 
-2.4345436e+01 -5.0505405e+01 0.0000000e+00 
-2.0169724e+01 -5.0586369e+01 0.0000000e+00 
-1.6027193e+01 -5.0656685e+01 0.0000000e+00 
-1.1912168e+01 -5.0716896e+01 0.0000000e+00 
-7.8191452e+00 -5.0767036e+01 0.0000000e+00 
-3.7428420e+00 -5.0806835e+01 0.0000000e+00 
3.2183936e-01 -5.0835915e+01 0.0000000e+00 
4.4953794e+00 -5.0846241e+01 0.0000000e+00 
8.6673584e+00 -5.0849602e+01 0.0000000e+00 
1.2843083e+01 -5.0845871e+01 0.0000000e+00 
1.7028008e+01 -5.0834980e+01 0.0000000e+00 
2.1227697e+01 -5.0816864e+01 0.0000000e+00 
2.5447765e+01 -5.0791420e+01 0.0000000e+00 
2.9693710e+01 -5.0758514e+01 0.0000000e+00 
-2.8211918e+01 -5.6431568e+01 0.0000000e+00 
-2.4042418e+01 -5.6534454e+01 0.0000000e+00 
-1.9909168e+01 -5.6624279e+01 0.0000000e+00 
-1.5807409e+01 -5.6702229e+01 0.0000000e+00 
-1.1732441e+01 -5.6768909e+01 0.0000000e+00 
-7.6795278e+00 -5.6824448e+01 0.0000000e+00 
-3.6438134e+00 -5.6868607e+01 0.0000000e+00 
3.7974322e-01 -5.6901016e+01 0.0000000e+00 
4.5093470e+00 -5.6912605e+01 0.0000000e+00 
8.6369667e+00 -5.6916439e+01 0.0000000e+00 
1.2767976e+01 -5.6912300e+01 0.0000000e+00 
1.6907877e+01 -5.6900013e+01 0.0000000e+00 
2.1062267e+01 -5.6879448e+01 0.0000000e+00 
2.5236763e+01 -5.6850498e+01 0.0000000e+00 
2.9436932e+01 -5.6813107e+01 0.0000000e+00 
-2.7829212e+01 -6.2380486e+01 0.0000000e+00 
-2.3708916e+01 -6.2492744e+01 0.0000000e+00 
-1.9621937e+01 -6.2591057e+01 0.0000000e+00 
-1.5564660e+01 -6.2676720e+01 0.0000000e+00 
-1.1533471e+01 -6.2750359e+01 0.0000000e+00 
-7.5244899e+00 -6.2811993e+01 0.0000000e+00 
-3.5333848e+00 -6.2861233e+01 0.0000000e+00 
4.4475248e-01 -6.2897488e+01 0.0000000e+00 
4.5256991e+00 -6.2910477e+01 0.0000000e+00 
8.6040382e+00 -6.2914787e+01 0.0000000e+00 
1.2685234e+01 -6.2910130e+01 0.0000000e+00 
1.6774902e+01 -6.2896309e+01 0.0000000e+00 
2.0878736e+01 -6.2873192e+01 0.0000000e+00 
2.5002480e+01 -6.2840694e+01 0.0000000e+00 
2.9151878e+01 -6.2798801e+01 0.0000000e+00 
-2.7415392e+01 -6.8253853e+01 0.0000000e+00 
-2.3347353e+01 -6.8374557e+01 0.0000000e+00 
-1.9309286e+01 -6.8480827e+01 0.0000000e+00 
-1.5299104e+01 -6.8574120e+01 0.0000000e+00 
-1.1314539e+01 -6.8654999e+01 0.0000000e+00 
-7.3528318e+00 -6.8723312e+01 0.0000000e+00 
-3.4103768e+00 -6.8778259e+01 0.0000000e+00 
5.1755023e-01 -6.8818771e+01 0.0000000e+00 
4.5449409e+00 -6.8833221e+01 0.0000000e+00 
8.5688620e+00 -6.8837891e+01 0.0000000e+00 
1.2594994e+01 -6.8832489e+01 0.0000000e+00 
1.6629154e+01 -6.8816879e+01 0.0000000e+00 
2.0677183e+01 -6.8791023e+01 0.0000000e+00 
2.4744928e+01 -6.8754883e+01 0.0000000e+00 
2.8838333e+01 -6.8708435e+01 0.0000000e+00 
-2.6974630e+01 -7.4047646e+01 0.0000000e+00 
-2.2960522e+01 -7.4175629e+01 0.0000000e+00 
-1.8972801e+01 -7.4289009e+01 0.0000000e+00 
-1.5011119e+01 -7.4389328e+01 0.0000000e+00 
-1.1074909e+01 -7.4477341e+01 0.0000000e+00 
-7.1630502e+00 -7.4552620e+01 0.0000000e+00 
-3.2732077e+00 -7.4613815e+01 0.0000000e+00 
5.9898990e-01 -7.4658806e+01 0.0000000e+00 
4.5675921e+00 -7.4674522e+01 0.0000000e+00 
8.5315695e+00 -7.4679100e+01 0.0000000e+00 
1.2497144e+01 -7.4672318e+01 0.0000000e+00 
1.6470497e+01 -7.4654312e+01 0.0000000e+00 
2.0457560e+01 -7.4625282e+01 0.0000000e+00 
2.4464111e+01 -7.4585297e+01 0.0000000e+00 
2.8496044e+01 -7.4534256e+01 0.0000000e+00 
-2.6511581e+01 -7.9760582e+01 0.0000000e+00 
-2.2551655e+01 -7.9894432e+01 0.0000000e+00 
-1.8614899e+01 -8.0013245e+01 0.0000000e+00 
-1.4701911e+01 -8.0118874e+01 0.0000000e+00 
-1.0813888e+01 -8.0212761e+01 0.0000000e+00 
-6.9529381e+00 -8.0294991e+01 0.0000000e+00 
-3.1194320e+00 -8.0362640e+01 0.0000000e+00 
6.9023776e-01 -8.0412041e+01 0.0000000e+00 
4.5939193e+00 -8.0428352e+01 0.0000000e+00 
8.4916725e+00 -8.0431572e+01 0.0000000e+00 
1.2390891e+01 -8.0422058e+01 0.0000000e+00 
1.6298294e+01 -8.0400452e+01 0.0000000e+00 
2.0219709e+01 -8.0367523e+01 0.0000000e+00 
2.4160259e+01 -8.0323448e+01 0.0000000e+00 
2.8125206e+01 -8.0267838e+01 0.0000000e+00 
-2.6028992e+01 -8.5394592e+01 0.0000000e+00 
-2.2124336e+01 -8.5533463e+01 0.0000000e+00 
-1.8240408e+01 -8.5654510e+01 0.0000000e+00 
-1.4374489e+01 -8.5761459e+01 0.0000000e+00 
-1.0531398e+01 -8.5858871e+01 0.0000000e+00 
-6.7188621e+00 -8.5946243e+01 0.0000000e+00 
-2.9444442e+00 -8.6021133e+01 0.0000000e+00 
7.9254675e-01 -8.6073441e+01 0.0000000e+00 
4.6233935e+00 -8.6088242e+01 0.0000000e+00 
8.4471912e+00 -8.6087746e+01 0.0000000e+00 
1.2274005e+01 -8.6072739e+01 0.0000000e+00 
1.6111423e+01 -8.6046043e+01 0.0000000e+00 
1.9963612e+01 -8.6008636e+01 0.0000000e+00 
2.3834242e+01 -8.5960426e+01 0.0000000e+00 
2.7727186e+01 -8.5900520e+01 0.0000000e+00 
-2.5524065e+01 -9.0950432e+01 0.0000000e+00 
-2.1679979e+01 -9.1095634e+01 0.0000000e+00 
-1.7857029e+01 -9.1219551e+01 0.0000000e+00 
-1.4038508e+01 -9.1321838e+01 0.0000000e+00 
-1.0225717e+01 -9.1415916e+01 0.0000000e+00 
-6.4537282e+00 -9.1512024e+01 0.0000000e+00 
-2.7441194e+00 -9.1586357e+01 0.0000000e+00 
9.0813619e-01 -9.1636292e+01 0.0000000e+00 
4.6528506e+00 -9.1646194e+01 0.0000000e+00 
8.3919735e+00 -9.1634979e+01 0.0000000e+00 
1.2143776e+01 -9.1612839e+01 0.0000000e+00 
1.5909215e+01 -9.1581238e+01 0.0000000e+00 
1.9689983e+01 -9.1539963e+01 0.0000000e+00 
2.3487949e+01 -9.1488205e+01 0.0000000e+00 
2.7305145e+01 -9.1424637e+01 0.0000000e+00 
-2.4990034e+01 -9.6416397e+01 0.0000000e+00 
-2.1217121e+01 -9.6570381e+01 0.0000000e+00 
-1.7461401e+01 -9.6705032e+01 0.0000000e+00 
-1.3707437e+01 -9.6824997e+01 0.0000000e+00 
-9.8847866e+00 -9.6936340e+01 0.0000000e+00 
-6.1583529e+00 -9.7007980e+01 0.0000000e+00 
-2.5323625e+00 -9.7060295e+01 0.0000000e+00 
1.0473628e+00 -9.7080978e+01 0.0000000e+00 
4.6636796e+00 -9.7070816e+01 0.0000000e+00 
8.3230228e+00 -9.7054825e+01 0.0000000e+00 
1.2000259e+01 -9.7031403e+01 0.0000000e+00 
1.5692942e+01 -9.6998734e+01 0.0000000e+00 
1.9400745e+01 -9.6955833e+01 0.0000000e+00 
2.3124220e+01 -9.6901779e+01 0.0000000e+00 
2.6863770e+01 -9.6835434e+01 0.0000000e+00 
-2.4428698e+01 -1.0176532e+02 0.0000000e+00 
-2.0737720e+01 -1.0192480e+02 0.0000000e+00 
-1.7057224e+01 -1.0206284e+02 0.0000000e+00 
-1.3375453e+01 -1.0218086e+02 0.0000000e+00 
-9.7047548e+00 -1.0226031e+02 0.0000000e+00 
-6.0578136e+00 -1.0228426e+02 0.0000000e+00 
-2.4620769e+00 -1.0230363e+02 0.0000000e+00 
1.1121626e+00 -1.0233036e+02 0.0000000e+00 
4.6629925e+00 -1.0234578e+02 0.0000000e+00 
8.2446337e+00 -1.0234479e+02 0.0000000e+00 
1.1846994e+01 -1.0232834e+02 0.0000000e+00 
1.5465236e+01 -1.0229852e+02 0.0000000e+00 
1.9098305e+01 -1.0225597e+02 0.0000000e+00 
2.2745962e+01 -1.0220066e+02 0.0000000e+00 
2.6407726e+01 -1.0213224e+02 0.0000000e+00 
-2.3853006e+01 -1.0698154e+02 0.0000000e+00 
-2.0249748e+01 -1.0714209e+02 0.0000000e+00 
-1.6653772e+01 -1.0727620e+02 0.0000000e+00 
-1.3069860e+01 -1.0737985e+02 0.0000000e+00 
-9.5073833e+00 -1.0745052e+02 0.0000000e+00 
-5.9325285e+00 -1.0747901e+02 0.0000000e+00 
-2.3813589e+00 -1.0750078e+02 0.0000000e+00 
1.1515154e+00 -1.0752223e+02 0.0000000e+00 
4.6475830e+00 -1.0753073e+02 0.0000000e+00 
8.1578312e+00 -1.0752994e+02 0.0000000e+00 
1.1684811e+01 -1.0751569e+02 0.0000000e+00 
1.5227154e+01 -1.0748710e+02 0.0000000e+00 
1.8783979e+01 -1.0744440e+02 0.0000000e+00 
2.2354977e+01 -1.0738779e+02 0.0000000e+00 
2.5939732e+01 -1.0731747e+02 0.0000000e+00 
-2.3272863e+01 -1.1206999e+02 0.0000000e+00 
-1.9756464e+01 -1.1223136e+02 0.0000000e+00 
-1.6250690e+01 -1.1236492e+02 0.0000000e+00 
-1.2759922e+01 -1.1246916e+02 0.0000000e+00 
-9.2876568e+00 -1.1254418e+02 0.0000000e+00 
-5.7827539e+00 -1.1257697e+02 0.0000000e+00 
-2.2942374e+00 -1.1260057e+02 0.0000000e+00 
1.1794524e+00 -1.1261884e+02 0.0000000e+00 
4.6149402e+00 -1.1262287e+02 0.0000000e+00 
8.0575027e+00 -1.1261723e+02 0.0000000e+00 
1.1511092e+01 -1.1259993e+02 0.0000000e+00 
1.4977566e+01 -1.1256938e+02 0.0000000e+00 
1.8457577e+01 -1.1252488e+02 0.0000000e+00 
2.1951546e+01 -1.1246628e+02 0.0000000e+00 
2.5459871e+01 -1.1239380e+02 0.0000000e+00 
-2.2687557e+01 -1.1704039e+02 0.0000000e+00 
-1.9255108e+01 -1.1720448e+02 0.0000000e+00 
-1.5837242e+01 -1.1734177e+02 0.0000000e+00 
-1.2435006e+01 -1.1745097e+02 0.0000000e+00 
-9.0483580e+00 -1.1753249e+02 0.0000000e+00 
-5.6187663e+00 -1.1756843e+02 0.0000000e+00 
-2.2015066e+00 -1.1759301e+02 0.0000000e+00 
1.2035942e+00 -1.1760926e+02 0.0000000e+00 
4.5720100e+00 -1.1761013e+02 0.0000000e+00 
7.9444685e+00 -1.1760051e+02 0.0000000e+00 
1.1324765e+01 -1.1757928e+02 0.0000000e+00 
1.4715511e+01 -1.1754540e+02 0.0000000e+00 
1.8118492e+01 -1.1749809e+02 0.0000000e+00 
2.1535074e+01 -1.1743695e+02 0.0000000e+00 
2.4966639e+01 -1.1736200e+02 0.0000000e+00 
-2.2091185e+01 -1.2189700e+02 0.0000000e+00 
-1.8741302e+01 -1.2206548e+02 0.0000000e+00 
-1.5409754e+01 -1.2220761e+02 0.0000000e+00 
-1.2094854e+01 -1.2232218e+02 0.0000000e+00 
-8.7944822e+00 -1.2240904e+02 0.0000000e+00 
-5.4444332e+00 -1.2244729e+02 0.0000000e+00 
-2.1040719e+00 -1.2247266e+02 0.0000000e+00 
1.2264498e+00 -1.2248753e+02 0.0000000e+00 
4.5226974e+00 -1.2248627e+02 0.0000000e+00 
7.8218150e+00 -1.2247364e+02 0.0000000e+00 
1.1127118e+01 -1.2244913e+02 0.0000000e+00 
1.4441311e+01 -1.2241206e+02 0.0000000e+00 
1.7766611e+01 -1.2236185e+02 0.0000000e+00 
2.1104984e+01 -1.2229804e+02 0.0000000e+00 
2.4458458e+01 -1.2222045e+02 0.0000000e+00 
-2.1478062e+01 -1.2663872e+02 0.0000000e+00 
-1.8211899e+01 -1.2681265e+02 0.0000000e+00 
-1.4967352e+01 -1.2695982e+02 0.0000000e+00 
-1.1741029e+01 -1.2707899e+02 0.0000000e+00 
-8.5293837e+00 -1.2716969e+02 0.0000000e+00 
-5.2621717e+00 -1.2720951e+02 0.0000000e+00 
-2.0027695e+00 -1.2723537e+02 0.0000000e+00 
1.2487854e+00 -1.2724939e+02 0.0000000e+00 
4.4689751e+00 -1.2724662e+02 0.0000000e+00 
7.6917491e+00 -1.2723189e+02 0.0000000e+00 
1.0919933e+01 -1.2720493e+02 0.0000000e+00 
1.4156049e+01 -1.2716533e+02 0.0000000e+00 
1.7402395e+01 -1.2711259e+02 0.0000000e+00 
2.0661169e+01 -1.2704629e+02 0.0000000e+00 
2.3934616e+01 -1.2696607e+02 0.0000000e+00 
-2.0843979e+01 -1.3126198e+02 0.0000000e+00 
-1.7664282e+01 -1.3144223e+02 0.0000000e+00 
-1.4509499e+01 -1.3159456e+02 0.0000000e+00 
-1.1374778e+01 -1.3171756e+02 0.0000000e+00 
-8.2552557e+00 -1.3181076e+02 0.0000000e+00 
-5.0738678e+00 -1.3185150e+02 0.0000000e+00 
-1.8986231e+00 -1.3187752e+02 0.0000000e+00 
1.2706113e+00 -1.3189093e+02 0.0000000e+00 
4.4118142e+00 -1.3188716e+02 0.0000000e+00 
7.5557742e+00 -1.3187111e+02 0.0000000e+00 
1.0704754e+01 -1.3184261e+02 0.0000000e+00 
1.3860970e+01 -1.3180125e+02 0.0000000e+00 
1.7026648e+01 -1.3174657e+02 0.0000000e+00 
2.0204033e+01 -1.3167809e+02 0.0000000e+00 
2.3395351e+01 -1.3159538e+02 0.0000000e+00 
-2.0184988e+01 -1.3576230e+02 0.0000000e+00 
-1.7095819e+01 -1.3594986e+02 0.0000000e+00 
-1.4035432e+01 -1.3610759e+02 0.0000000e+00 
-1.0996958e+01 -1.3623389e+02 0.0000000e+00 
-7.9738712e+00 -1.3632841e+02 0.0000000e+00 
-4.8812084e+00 -1.3636951e+02 0.0000000e+00 
-1.7928261e+00 -1.3639543e+02 0.0000000e+00 
1.2915145e+00 -1.3640826e+02 0.0000000e+00 
4.3518171e+00 -1.3640405e+02 0.0000000e+00 
7.4151478e+00 -1.3638763e+02 0.0000000e+00 
1.0483056e+01 -1.3635866e+02 0.0000000e+00 
1.3557390e+01 -1.3631653e+02 0.0000000e+00 
1.6640333e+01 -1.3626057e+02 0.0000000e+00 
1.9734255e+01 -1.3619028e+02 0.0000000e+00 
2.2841444e+01 -1.3610530e+02 0.0000000e+00 
-1.9496067e+01 -1.4013382e+02 0.0000000e+00 
-1.6503363e+01 -1.4033008e+02 0.0000000e+00 
-1.3544013e+01 -1.4049394e+02 0.0000000e+00 
-1.0608279e+01 -1.4062350e+02 0.0000000e+00 
-7.6871567e+00 -1.4071854e+02 0.0000000e+00 
-4.6860824e+00 -1.4075946e+02 0.0000000e+00 
-1.6866978e+00 -1.4078496e+02 0.0000000e+00 
1.3109905e+00 -1.4079736e+02 0.0000000e+00 
4.2897763e+00 -1.4079366e+02 0.0000000e+00 
7.2714953e+00 -1.4077829e+02 0.0000000e+00 
1.0256662e+01 -1.4075034e+02 0.0000000e+00 
1.3246840e+01 -1.4070862e+02 0.0000000e+00 
1.6244476e+01 -1.4065219e+02 0.0000000e+00 
1.9252455e+01 -1.4058046e+02 0.0000000e+00 
2.2273548e+01 -1.4049332e+02 0.0000000e+00 
-1.8770668e+01 -1.4436703e+02 0.0000000e+00 
-1.5882830e+01 -1.4457408e+02 0.0000000e+00 
-1.3032825e+01 -1.4474623e+02 0.0000000e+00 
-1.0208679e+01 -1.4488107e+02 0.0000000e+00 
-7.3977947e+00 -1.4497707e+02 0.0000000e+00 
-4.4910135e+00 -1.4501720e+02 0.0000000e+00 
-1.5818504e+00 -1.4504199e+02 0.0000000e+00 
1.3288343e+00 -1.4505415e+02 0.0000000e+00 
4.2276392e+00 -1.4505292e+02 0.0000000e+00 
7.1276317e+00 -1.4504099e+02 0.0000000e+00 
1.0028128e+01 -1.4501601e+02 0.0000000e+00 
1.2931067e+01 -1.4497595e+02 0.0000000e+00 
1.5839952e+01 -1.4491962e+02 0.0000000e+00 
1.8758791e+01 -1.4484663e+02 0.0000000e+00 
2.1691452e+01 -1.4475728e+02 0.0000000e+00 
-1.8003986e+01 -1.4844672e+02 0.0000000e+00 
-1.5228941e+01 -1.4866615e+02 0.0000000e+00 
-1.2495106e+01 -1.4885226e+02 0.0000000e+00 
-9.7944851e+00 -1.4899918e+02 0.0000000e+00 
-7.1090102e+00 -1.4910040e+02 0.0000000e+00 
-4.3004260e+00 -1.4913979e+02 0.0000000e+00 
-1.4812199e+00 -1.4916187e+02 0.0000000e+00 
1.3470463e+00 -1.4917581e+02 0.0000000e+00 
4.1704249e+00 -1.4918141e+02 0.0000000e+00 
6.9882197e+00 -1.4917622e+02 0.0000000e+00 
9.8003826e+00 -1.4915555e+02 0.0000000e+00 
1.2611460e+01 -1.4911722e+02 0.0000000e+00 
1.5427053e+01 -1.4906071e+02 0.0000000e+00 
1.8252621e+01 -1.4898619e+02 0.0000000e+00 
2.1093515e+01 -1.4889427e+02 0.0000000e+00 
-1.7199871e+01 -1.5235609e+02 0.0000000e+00 
-1.4539707e+01 -1.5258607e+02 0.0000000e+00 
-1.1916624e+01 -1.5278741e+02 0.0000000e+00 
-9.3481379e+00 -1.5296242e+02 0.0000000e+00 
-6.8208561e+00 -1.5308466e+02 0.0000000e+00 
-4.1268301e+00 -1.5312083e+02 0.0000000e+00 
-1.3877590e+00 -1.5314433e+02 0.0000000e+00 
1.3757116e+00 -1.5316872e+02 0.0000000e+00 
4.1274619e+00 -1.5318719e+02 0.0000000e+00 
6.8576417e+00 -1.5318810e+02 0.0000000e+00 
9.5745277e+00 -1.5316855e+02 0.0000000e+00 
1.2287949e+01 -1.5312932e+02 0.0000000e+00 
1.5005119e+01 -1.5307103e+02 0.0000000e+00 
1.7732550e+01 -1.5299408e+02 0.0000000e+00 
2.0476852e+01 -1.5289903e+02 0.0000000e+00 
-1.6372648e+01 -1.5609398e+02 0.0000000e+00 
-1.3819998e+01 -1.5632889e+02 0.0000000e+00 
-1.1301430e+01 -1.5653305e+02 0.0000000e+00 
-8.8331337e+00 -1.5670763e+02 0.0000000e+00 
-6.5264683e+00 -1.5685855e+02 0.0000000e+00 
-3.9771636e+00 -1.5695773e+02 0.0000000e+00 
-1.2948289e+00 -1.5703214e+02 0.0000000e+00 
1.4275665e+00 -1.5707251e+02 0.0000000e+00 
4.1037936e+00 -1.5708199e+02 0.0000000e+00 
6.7335858e+00 -1.5707372e+02 0.0000000e+00 
9.3484402e+00 -1.5704770e+02 0.0000000e+00 
1.1958967e+01 -1.5700378e+02 0.0000000e+00 
1.4572933e+01 -1.5694180e+02 0.0000000e+00 