# vtk DataFile Version 4.0
vtk output
ASCII
DATASET UNSTRUCTURED_GRID
POINTS 99 float
3.0583815e+01 1.4913773e+02 0.0000000e+00 
6.1197521e+01 1.4288406e+02 0.0000000e+00 
9.1795532e+01 1.3660258e+02 0.0000000e+00 
1.2235619e+02 1.3030391e+02 0.0000000e+00 
1.5287352e+02 1.2401371e+02 0.0000000e+00 
1.8335138e+02 1.1775183e+02 0.0000000e+00 
2.1379500e+02 1.1153061e+02 0.0000000e+00 
2.4420784e+02 1.0535824e+02 0.0000000e+00 
2.7459167e+02 9.9241486e+01 0.0000000e+00 
3.0494714e+02 9.3186890e+01 0.0000000e+00 
3.3527432e+02 8.7201202e+01 0.0000000e+00 
3.6557303e+02 8.1291565e+01 0.0000000e+00 
3.9584299e+02 7.5465744e+01 0.0000000e+00 
4.2608438e+02 6.9732162e+01 0.0000000e+00 
4.5629861e+02 6.4099480e+01 0.0000000e+00 
4.8648883e+02 5.8575367e+01 0.0000000e+00 
5.1665967e+02 5.3164570e+01 0.0000000e+00 
5.4681592e+02 4.7867760e+01 0.0000000e+00 
5.7696014e+02 4.2682537e+01 0.0000000e+00 
6.0709253e+02 3.7606201e+01 0.0000000e+00 
6.3721155e+02 3.2638004e+01 0.0000000e+00 
6.6731561e+02 2.7779551e+01 0.0000000e+00 
6.9740399e+02 2.3033930e+01 0.0000000e+00 
7.2747699e+02 1.8404613e+01 0.0000000e+00 
7.5753534e+02 1.3894706e+01 0.0000000e+00 
7.8757965e+02 9.5066814e+00 0.0000000e+00 
8.1760980e+02 5.2427144e+00 0.0000000e+00 
8.4762415e+02 1.1057343e+00 0.0000000e+00 
8.7761969e+02 -2.8990266e+00 0.0000000e+00 
9.0759375e+02 -6.7629714e+00 0.0000000e+00 
9.3754523e+02 -1.0474897e+01 0.0000000e+00 
9.6747601e+02 -1.4023638e+01 0.0000000e+00 
9.9738971e+02 -1.7400661e+01 0.0000000e+00 
1.0272903e+03 -2.0600824e+01 0.0000000e+00 
1.0571804e+03 -2.3621414e+01 0.0000000e+00 
1.0870618e+03 -2.6460812e+01 0.0000000e+00 
1.1169353e+03 -2.9117592e+01 0.0000000e+00 
1.1468011e+03 -3.1590199e+01 0.0000000e+00 
1.1766597e+03 -3.3876938e+01 0.0000000e+00 
1.2065114e+03 -3.5976067e+01 0.0000000e+00 
1.2363566e+03 -3.7885910e+01 0.0000000e+00 
1.2661959e+03 -3.9604885e+01 0.0000000e+00 
1.2960300e+03 -4.1131580e+01 0.0000000e+00 
1.3258595e+03 -4.2464733e+01 0.0000000e+00 
1.3556849e+03 -4.3603264e+01 0.0000000e+00 
1.3855071e+03 -4.4546261e+01 0.0000000e+00 
1.4153265e+03 -4.5292980e+01 0.0000000e+00 
1.4451439e+03 -4.5842846e+01 0.0000000e+00 
1.4749601e+03 -4.6195454e+01 0.0000000e+00 
1.5047755e+03 -4.6350552e+01 0.0000000e+00 
1.5345909e+03 -4.6308060e+01 0.0000000e+00 
1.5644070e+03 -4.6068062e+01 0.0000000e+00 
1.5942245e+03 -4.5630795e+01 0.0000000e+00 
1.6240438e+03 -4.4996662e+01 0.0000000e+00 
1.6538660e+03 -4.4166237e+01 0.0000000e+00 
1.6836913e+03 -4.3140236e+01 0.0000000e+00 
1.7135206e+03 -4.1919556e+01 0.0000000e+00 
1.7433546e+03 -4.0505241e+01 0.0000000e+00 
1.7731938e+03 -3.8898506e+01 0.0000000e+00 
1.8030391e+03 -3.7100719e+01 0.0000000e+00 
1.8328909e+03 -3.5113422e+01 0.0000000e+00 
1.8627500e+03 -3.2938305e+01 0.0000000e+00 
1.8926171e+03 -3.0577229e+01 0.0000000e+00 
1.9224927e+03 -2.8032209e+01 0.0000000e+00 
1.9523776e+03 -2.5305428e+01 0.0000000e+00 
1.9822725e+03 -2.2399227e+01 0.0000000e+00 
2.0121779e+03 -1.9316109e+01 0.0000000e+00 
2.0420945e+03 -1.6058737e+01 0.0000000e+00 
2.0720232e+03 -1.2629942e+01 0.0000000e+00 
2.1019644e+03 -9.0327082e+00 0.0000000e+00 
2.1319187e+03 -5.2701864e+00 0.0000000e+00 
2.1618870e+03 -1.3456872e+00 0.0000000e+00 
2.1918699e+03 2.7373178e+00 0.0000000e+00 
2.2218679e+03 6.9751940e+00 0.0000000e+00 
2.2518818e+03 1.1364146e+01 0.0000000e+00 
2.2819124e+03 1.5900219e+01 0.0000000e+00 
2.3119600e+03 2.0579292e+01 0.0000000e+00 
2.3420256e+03 2.5397087e+01 0.0000000e+00 
2.3721096e+03 3.0349161e+01 0.0000000e+00 
2.4022129e+03 3.5430912e+01 0.0000000e+00 
2.4323362e+03 4.0637577e+01 0.0000000e+00 
2.4624797e+03 4.5964226e+01 0.0000000e+00 
2.4926445e+03 5.1405766e+01 0.0000000e+00 
2.5228313e+03 5.6956947e+01 0.0000000e+00 
2.5530405e+03 6.2612350e+01 0.0000000e+00 
2.5832729e+03 6.8366386e+01 0.0000000e+00 
2.6135291e+03 7.4213310e+01 0.0000000e+00 
2.6438098e+03 8.0147217e+01 0.0000000e+00 
2.6741157e+03 8.6162041e+01 0.0000000e+00 
2.7044473e+03 9.2251595e+01 0.0000000e+00 
2.7348052e+03 9.8409622e+01 0.0000000e+00 
2.7651904e+03 1.0462981e+02 0.0000000e+00 
2.7956040e+03 1.1090578e+02 0.0000000e+00 
2.8260479e+03 1.1723081e+02 0.0000000e+00 
2.8565256e+03 1.2359668e+02 0.0000000e+00 
2.8870430e+03 1.2999101e+02 0.0000000e+00 
2.9176038e+03 1.3639391e+02 0.0000000e+00 
2.9482017e+03 1.4277966e+02 0.0000000e+00 
2.9788154e+03 1.4913760e+02 0.0000000e+00 

CELLS 99 198
1 0
1 1
1 2
1 3
1 4
1 5
1 6
1 7
1 8
1 9
1 10
1 11
1 12
1 13
1 14
1 15
1 16
1 17
1 18
1 19
1 20
1 21
1 22
1 23
1 24
1 25
1 26
1 27
1 28
1 29
1 30
1 31
1 32
1 33
1 34
1 35
1 36
1 37
1 38
1 39
1 40
1 41
1 42
1 43
1 44
1 45
1 46
1 47
1 48
1 49
1 50
1 51
1 52
1 53
1 54
1 55
1 56
1 57
1 58
1 59
1 60
1 61
1 62
1 63
1 64
1 65
1 66
1 67
1 68
1 69
1 70
1 71
1 72
1 73
1 74
1 75
1 76
1 77
1 78
1 79
1 80
1 81
1 82
1 83
1 84
1 85
1 86
1 87
1 88
1 89
1 90
1 91
1 92
1 93
1 94
1 95
1 96
1 97
1 98

CELL_TYPES 99
1
1
1
1
1
1
1
1
1
1
1
1
1
1
1
1
1
1
1
1
1
1
1
1
1
1
1
1
1
1
1
1
1
1
1
1
1
1
1
1
1
1
1
1
1
1
1
1
1
1
1
1
1
1
1
1
1
1
1
1
1
1
1
1
1
1
1
1
1
1
1
1
1
1
1
1
1
1
1
1
1
1
1
1
1
1
1
1
1
1
1
1
1
1
1
1
1
1
1
POINT_DATA 99
FIELD FieldData 3
DISPLACEMENT 3 99  float
3.0583815e+01 -8.6228013e-01 0.0000000e+00 
3.0585276e+01 -7.1159310e+00 0.0000000e+00 
3.0571041e+01 -1.3397421e+01 0.0000000e+00 
3.0519461e+01 -1.9696095e+01 0.0000000e+00 
3.0424540e+01 -2.5986292e+01 0.0000000e+00 
3.0290154e+01 -3.2248165e+01 0.0000000e+00 
3.0121525e+01 -3.8469391e+01 0.0000000e+00 
2.9922131e+01 -4.4641762e+01 0.0000000e+00 
2.9693710e+01 -5.0758514e+01 0.0000000e+00 
2.9436932e+01 -5.6813107e+01 0.0000000e+00 
2.9151878e+01 -6.2798801e+01 0.0000000e+00 
2.8838333e+01 -6.8708435e+01 0.0000000e+00 
2.8496044e+01 -7.4534256e+01 0.0000000e+00 
2.8125206e+01 -8.0267838e+01 0.0000000e+00 
2.7727186e+01 -8.5900520e+01 0.0000000e+00 
2.7305145e+01 -9.1424637e+01 0.0000000e+00 
2.6863770e+01 -9.6835434e+01 0.0000000e+00 
2.6407726e+01 -1.0213224e+02 0.0000000e+00 
2.5939732e+01 -1.0731747e+02 0.0000000e+00 
2.5459871e+01 -1.1239380e+02 0.0000000e+00 
2.4966639e+01 -1.1736200e+02 0.0000000e+00 
2.4458458e+01 -1.2222045e+02 0.0000000e+00 
2.3934616e+01 -1.2696607e+02 0.0000000e+00 
2.3395351e+01 -1.3159538e+02 0.0000000e+00 
2.2841444e+01 -1.3610530e+02 0.0000000e+00 
2.2273548e+01 -1.4049332e+02 0.0000000e+00 
2.1691452e+01 -1.4475728e+02 0.0000000e+00 
2.1093515e+01 -1.4889427e+02 0.0000000e+00 
2.0476852e+01 -1.5289903e+02 0.0000000e+00 
1.9838631e+01 -1.5676297e+02 0.0000000e+00 
1.9177879e+01 -1.6047490e+02 0.0000000e+00 
1.8496391e+01 -1.6402364e+02 0.0000000e+00 
1.7797859e+01 -1.6740067e+02 0.0000000e+00 
1.7086145e+01 -1.7060083e+02 0.0000000e+00 
1.6364075e+01 -1.7362141e+02 0.0000000e+00 
1.5633249e+01 -1.7646082e+02 0.0000000e+00 
1.4894436e+01 -1.7911758e+02 0.0000000e+00 
1.4148028e+01 -1.8159019e+02 0.0000000e+00 
1.3394349e+01 -1.8387694e+02 0.0000000e+00 
1.2633778e+01 -1.8597607e+02 0.0000000e+00 
1.1866782e+01 -1.8788591e+02 0.0000000e+00 
1.1093906e+01 -1.8960489e+02 0.0000000e+00 
1.0315750e+01 -1.9113158e+02 0.0000000e+00 
9.5329475e+00 -1.9246474e+02 0.0000000e+00 
8.7461500e+00 -1.9360327e+02 0.0000000e+00 
7.9560194e+00 -1.9454626e+02 0.0000000e+00 
7.1632223e+00 -1.9529298e+02 0.0000000e+00 
6.3684244e+00 -1.9584285e+02 0.0000000e+00 
5.5722928e+00 -1.9619545e+02 0.0000000e+00 
4.7754922e+00 -1.9635056e+02 0.0000000e+00 
3.9786873e+00 -1.9630806e+02 0.0000000e+00 
3.1825414e+00 -1.9606805e+02 0.0000000e+00 
2.3877172e+00 -1.9563080e+02 0.0000000e+00 
1.5948776e+00 -1.9499666e+02 0.0000000e+00 
8.0468440e-01 -1.9416623e+02 0.0000000e+00 
1.7799579e-02 -1.9314024e+02 0.0000000e+00 
-7.6511502e-01 -1.9191956e+02 0.0000000e+00 
-1.5433975e+00 -1.9050523e+02 0.0000000e+00 
-2.3163865e+00 -1.8889850e+02 0.0000000e+00 
-3.0834198e+00 -1.8710072e+02 0.0000000e+00 
-3.8438361e+00 -1.8511342e+02 0.0000000e+00 
-4.5969734e+00 -1.8293831e+02 0.0000000e+00 
-5.3421707e+00 -1.8057722e+02 0.0000000e+00 
-6.0787649e+00 -1.7803221e+02 0.0000000e+00 
-6.8060961e+00 -1.7530544e+02 0.0000000e+00 
-7.5235009e+00 -1.7239923e+02 0.0000000e+00 
-8.2303190e+00 -1.6931610e+02 0.0000000e+00 
-8.9258871e+00 -1.6605873e+02 0.0000000e+00 
-9.6095448e+00 -1.6262994e+02 0.0000000e+00 
-1.0280630e+01 -1.5903271e+02 0.0000000e+00 
-1.0938481e+01 -1.5527019e+02 0.0000000e+00 
-1.1582438e+01 -1.5134569e+02 0.0000000e+00 
-1.2211835e+01 -1.4726268e+02 0.0000000e+00 
-1.2826014e+01 -1.4302481e+02 0.0000000e+00 
-1.3424311e+01 -1.3863585e+02 0.0000000e+00 
-1.4006065e+01 -1.3409978e+02 0.0000000e+00 
-1.4570615e+01 -1.2942072e+02 0.0000000e+00 
-1.5117297e+01 -1.2460291e+02 0.0000000e+00 
-1.5645451e+01 -1.1965084e+02 0.0000000e+00 
-1.6154411e+01 -1.1456908e+02 0.0000000e+00 
-1.6643517e+01 -1.0936243e+02 0.0000000e+00 
-1.7112103e+01 -1.0403577e+02 0.0000000e+00 
-1.7559502e+01 -9.8594231e+01 0.0000000e+00 
-1.7985052e+01 -9.3043053e+01 0.0000000e+00 
-1.8388086e+01 -8.7387650e+01 0.0000000e+00 
-1.8767942e+01 -8.1633614e+01 0.0000000e+00 
-1.9123960e+01 -7.5786690e+01 0.0000000e+00 
-1.9455492e+01 -6.9852783e+01 0.0000000e+00 
-1.9761896e+01 -6.3837959e+01 0.0000000e+00 
-2.0042549e+01 -5.7748402e+01 0.0000000e+00 
-2.0296797e+01 -5.1590378e+01 0.0000000e+00 
-2.0523869e+01 -4.5370197e+01 0.0000000e+00 
-2.0722614e+01 -3.9094223e+01 0.0000000e+00 
-2.0890978e+01 -3.2769188e+01 0.0000000e+00 
-2.1025290e+01 -2.6403320e+01 0.0000000e+00 
-2.1120218e+01 -2.0008989e+01 0.0000000e+00 
-2.1171824e+01 -1.3606092e+01 0.0000000e+00 
-2.1186073e+01 -7.2203336e+00 0.0000000e+00 
-2.1184618e+01 -8.6240369e-01 0.0000000e+00 
REACTION 3 99  float
-6.6779648e-10 -1.6207196e-09 0.0000000e+00 
7.6179276e-09 -2.7976057e-09 0.0000000e+00 
3.2014214e-10 1.9463187e-09 0.0000000e+00 
1.0040822e-09 -4.7180038e-09 0.0000000e+00 
3.7543941e-09 1.5641035e-08 0.0000000e+00 
-3.0559022e-09 -9.4032657e-09 0.0000000e+00 
3.8417056e-09 4.6838977e-09 0.0000000e+00 
8.6147338e-09 9.1022230e-09 0.0000000e+00 
-6.7811925e-09 1.3267709e-08 0.0000000e+00 
2.0372681e-09 -6.8157533e-09 0.0000000e+00 
-1.6472768e-08 1.8766514e-08 0.0000000e+00 
1.1059456e-09 7.9030542e-08 0.0000000e+00 
1.3737008e-08 1.8000719e-08 0.0000000e+00 
-6.0535967e-09 3.7750397e-08 0.0000000e+00 
-5.8207661e-09 2.8581780e-08 0.0000000e+00 
3.6088750e-09 6.2811523e-08 0.0000000e+00 
3.4924597e-09 3.6077836e-08 0.0000000e+00 
6.0535967e-09 4.8448783e-08 0.0000000e+00 
9.7788870e-09 7.8980520e-09 0.0000000e+00 
2.3283064e-09 1.4748366e-08 0.0000000e+00 
1.1641532e-08 -2.9940566e-08 0.0000000e+00 
4.4237822e-09 -5.1692041e-08 0.0000000e+00 
-8.6147338e-09 5.2194082e-08 0.0000000e+00 
1.7578714e-08 -1.0400981e-08 0.0000000e+00 
-3.8417056e-09 -2.1947926e-08 0.0000000e+00 
-1.4901161e-08 -6.1789251e-08 0.0000000e+00 
-2.8521754e-08 1.0128133e-08 0.0000000e+00 
-6.1700121e-09 8.3335181e-08 0.0000000e+00 
3.4924597e-10 -9.4605639e-09 0.0000000e+00 
-2.5611371e-09 2.7239366e-08 0.0000000e+00 
-3.0267984e-09 7.8332960e-08 0.0000000e+00 
-1.8859282e-08 1.0594522e-07 0.0000000e+00 
2.7939677e-09 5.3762051e-08 0.0000000e+00 
2.6077032e-08 -9.4514689e-09 0.0000000e+00 
2.2002496e-08 -8.0173777e-08 0.0000000e+00 
1.2572855e-08 2.7139322e-08 0.0000000e+00 
1.4784746e-08 2.1696906e-08 0.0000000e+00 
1.7462298e-08 -4.8863512e-08 0.0000000e+00 
-1.7462298e-08 9.1931724e-09 0.0000000e+00 
1.7578714e-08 2.4976544e-08 0.0000000e+00 
-2.5611371e-09 3.6801794e-08 0.0000000e+00 
8.9639798e-09 1.3558747e-08 0.0000000e+00 
1.7462298e-09 4.0419764e-08 0.0000000e+00 
-2.5727786e-08 5.9942977e-08 0.0000000e+00 
1.1641532e-10 -1.4888428e-08 0.0000000e+00 
-1.5599653e-08 4.8372385e-08 0.0000000e+00 
-1.0128133e-08 1.5147634e-07 0.0000000e+00 
-1.1641532e-08 8.6190994e-08 0.0000000e+00 
-2.0954758e-09 3.9945007e-09 0.0000000e+00 
4.5401976e-09 -3.8378857e-08 0.0000000e+00 
1.8277206e-08 -7.8869562e-08 0.0000000e+00 
-2.5378540e-08 6.3901098e-08 0.0000000e+00 
-2.5029294e-08 1.5437763e-07 0.0000000e+00 
-5.3551048e-09 4.2224201e-08 0.0000000e+00 
1.1408702e-08 1.6314516e-08 0.0000000e+00 
-2.6193447e-08 2.3477696e-08 0.0000000e+00 
-6.2864274e-09 1.2554483e-07 0.0000000e+00 
8.9639798e-09 -3.2467142e-08 0.0000000e+00 
1.3038516e-08 -1.8981154e-08 0.0000000e+00 
2.2118911e-09 5.1026291e-08 0.0000000e+00 
-3.0733645e-08 1.3891804e-07 0.0000000e+00 
-2.4912879e-08 1.2163582e-08 0.0000000e+00 
1.9557774e-08 1.0966687e-08 0.0000000e+00 
-4.7730282e-09 1.1760130e-07 0.0000000e+00 
7.9162419e-09 1.6243575e-07 0.0000000e+00 
1.6298145e-09 -3.4720870e-08 0.0000000e+00 
-3.0267984e-09 6.7520887e-09 0.0000000e+00 
-8.6147338e-09 -4.4317858e-08 0.0000000e+00 
-4.6566129e-10 -1.4220859e-08 0.0000000e+00 
-9.8953024e-09 -5.0506060e-08 0.0000000e+00 
3.7718564e-08 -5.8607839e-08 0.0000000e+00 
-4.6566129e-10 -8.5165084e-08 0.0000000e+00 
-5.7043508e-09 -3.2887328e-08 0.0000000e+00 
2.9103830e-09 7.5042408e-08 0.0000000e+00 
-1.0360964e-08 -1.2954843e-08 0.0000000e+00 
4.3073669e-09 3.1559466e-08 0.0000000e+00 
-4.8894435e-09 2.0896550e-08 0.0000000e+00 
-1.7229468e-08 1.3609679e-08 0.0000000e+00 
7.9162419e-09 1.2976670e-08 0.0000000e+00 
-6.0535967e-09 1.8932042e-08 0.0000000e+00 
-1.0943040e-08 4.7239155e-08 0.0000000e+00 
-1.0884833e-08 2.2326276e-08 0.0000000e+00 
-1.1583325e-08 1.1947122e-08 0.0000000e+00 
1.0011718e-08 -3.5794073e-08 0.0000000e+00 
1.9790605e-09 -1.6272679e-08 0.0000000e+00 
-2.0954758e-09 -6.7520887e-09 0.0000000e+00 
3.2596290e-09 9.4114512e-09 0.0000000e+00 
2.2700988e-09 -2.0543666e-08 0.0000000e+00 
5.9371814e-09 -4.6384230e-08 0.0000000e+00 
-5.7043508e-09 -9.6042641e-09 0.0000000e+00 
5.2386895e-10 2.4247129e-08 0.0000000e+00 
-1.0186341e-09 1.5385012e-08 0.0000000e+00 
-3.1141099e-09 3.8824510e-08 0.0000000e+00 
-6.1118044e-10 3.3673132e-08 0.0000000e+00 
2.1100277e-09 1.0484655e-08 0.0000000e+00 
-4.3946784e-09 7.9307938e-10 0.0000000e+00 
-2.8521754e-09 7.1559043e-09 0.0000000e+00 
-2.6820999e-09 -4.4710760e-09 0.0000000e+00 
-3.6443453e-09 -1.2987584e-09 0.0000000e+00 
PK2_STRESS_VECTOR 3 99  float
-2.6281753e+00 -9.8576365e+00 -2.0134511e+00 
-1.1766336e+01 -1.1653963e+01 -5.9702830e+00 
-3.7817242e+01 -1.0283215e+01 -1.1775953e+01 
-7.5198158e+01 -9.0877123e+00 -1.3477300e+01 
-1.1352365e+02 -9.1501150e+00 -1.2464971e+01 
-1.4816826e+02 -9.6932297e+00 -1.1016947e+01 
-1.7918452e+02 -1.0219918e+01 -1.0013424e+01 
-2.0795058e+02 -1.0617949e+01 -9.4885445e+00 
-2.3562668e+02 -1.0927436e+01 -9.2710819e+00 
-2.6291928e+02 -1.1197923e+01 -9.2272558e+00 
-2.9021722e+02 -1.1450884e+01 -9.2745781e+00 
-3.1766577e+02 -1.1677082e+01 -9.3288622e+00 
-3.4507819e+02 -1.1840742e+01 -9.2482862e+00 
-3.7174631e+02 -1.1904296e+01 -8.8218651e+00 
-3.9638596e+02 -1.1885891e+01 -7.8724852e+00 
-4.1756076e+02 -1.1898287e+01 -6.4757042e+00 
-4.3461243e+02 -1.2065238e+01 -5.0811849e+00 
-4.4838101e+02 -1.2354868e+01 -4.2522826e+00 
-4.6082791e+02 -1.2590875e+01 -4.1852083e+00 
-4.7377151e+02 -1.2670424e+01 -4.5859203e+00 
-4.8793643e+02 -1.2641196e+01 -5.0096312e+00 
-5.0299249e+02 -1.2598242e+01 -5.1892972e+00 
-5.1817072e+02 -1.2599287e+01 -5.0946941e+00 
-5.3283508e+02 -1.2665220e+01 -4.8448529e+00 
-5.4680945e+02 -1.2809747e+01 -4.6315651e+00 
-5.6052338e+02 -1.3044518e+01 -4.6728501e+00 
-5.7496661e+02 -1.3346984e+01 -5.1287646e+00 
-5.9128845e+02 -1.3626834e+01 -5.9459748e+00 
-6.1000531e+02 -1.3768478e+01 -6.7500467e+00 
-6.3029608e+02 -1.3762300e+01 -7.0117722e+00 
-6.5017554e+02 -1.3754570e+01 -6.4721799e+00 
-6.6764130e+02 -1.3885138e+01 -5.3784628e+00 
-6.8179724e+02 -1.4137336e+01 -4.2319732e+00 
-6.9300610e+02 -1.4400656e+01 -3.3816791e+00 
-7.0223450e+02 -1.4597903e+01 -2.8873692e+00 
-7.1037042e+02 -1.4720453e+01 -2.6378710e+00 
-7.1793866e+02 -1.4794164e+01 -2.5000188e+00 
-7.2513763e+02 -1.4845215e+01 -2.3861771e+00 
-7.3197852e+02 -1.4888631e+01 -2.2566614e+00 
-7.3839923e+02 -1.4930186e+01 -2.1011071e+00 
-7.4432690e+02 -1.4970868e+01 -1.9221621e+00 
-7.4970203e+02 -1.5009878e+01 -1.7262396e+00 
-7.5448364e+02 -1.5046077e+01 -1.5194761e+00 
-7.5864667e+02 -1.5078513e+01 -1.3064773e+00 
-7.6217731e+02 -1.5106536e+01 -1.0902741e+00 
-7.6506879e+02 -1.5129750e+01 -8.7267411e-01 
-7.6731854e+02 -1.5147943e+01 -6.5465754e-01 
-7.6892596e+02 -1.5161008e+01 -4.3669555e-01 
-7.6989160e+02 -1.5168909e+01 -2.1897176e-01 
-7.7021619e+02 -1.5171637e+01 -1.5222298e-03 
-7.6990045e+02 -1.5169197e+01 2.1568254e-01 
-7.6894507e+02 -1.5161604e+01 4.3269345e-01 
-7.6735059e+02 -1.5148866e+01 6.4956141e-01 
-7.6511719e+02 -1.5130994e+01 8.6632848e-01 
-7.6224524e+02 -1.5107993e+01 1.0830262e+00 
-7.5873486e+02 -1.5079871e+01 1.2996759e+00 
-7.5458612e+02 -1.5046628e+01 1.5162915e+00 
-7.4979907e+02 -1.5008267e+01 1.7328811e+00 
-7.4437372e+02 -1.4964790e+01 1.9494487e+00 
-7.3831012e+02 -1.4916196e+01 2.1659961e+00 
-7.3160828e+02 -1.4862485e+01 2.3825235e+00 
-7.2426813e+02 -1.4803658e+01 2.5990300e+00 
-7.1628973e+02 -1.4739712e+01 2.8155146e+00 
-7.0767303e+02 -1.4670650e+01 3.0319760e+00 
-6.9841809e+02 -1.4596468e+01 3.2484128e+00 
-6.8852490e+02 -1.4517168e+01 3.4648242e+00 
-6.7799341e+02 -1.4432749e+01 3.6812088e+00 
-6.6682367e+02 -1.4343209e+01 3.8975658e+00 
-6.5501562e+02 -1.4248549e+01 4.1138949e+00 
-6.4256934e+02 -1.4148767e+01 4.3301964e+00 
-6.2948474e+02 -1.4043863e+01 4.5464697e+00 
-6.1576190e+02 -1.3933836e+01 4.7627177e+00 
-6.0140076e+02 -1.3818684e+01 4.9789438e+00 
-5.8640131e+02 -1.3698403e+01 5.1951542e+00 
-5.7076343e+02 -1.3572993e+01 5.4113588e+00 
-5.5448712e+02 -1.3442450e+01 5.6275735e+00 
-5.3757220e+02 -1.3306767e+01 5.8438220e+00 
-5.2001843e+02 -1.3165936e+01 6.0601363e+00 
-5.0182547e+02 -1.3019950e+01 6.2765565e+00 
-4.8299292e+02 -1.2868797e+01 6.4931293e+00 
-4.6352017e+02 -1.2712471e+01 6.7098927e+00 
-4.4340656e+02 -1.2550973e+01 6.9268541e+00 
-4.2265158e+02 -1.2384326e+01 7.1439390e+00 
-4.0125513e+02 -1.2212593e+01 7.3609152e+00 
-3.7921820e+02 -1.2035904e+01 7.5772834e+00 
-3.5654382e+02 -1.1854465e+01 7.7921872e+00 
-3.3323788e+02 -1.1668508e+01 8.0044899e+00 
-3.0930917e+02 -1.1478010e+01 8.2134323e+00 
-2.8476501e+02 -1.1281857e+01 8.4208412e+00 
-2.5959537e+02 -1.1075719e+01 8.6368046e+00 
-2.3373071e+02 -1.0847537e+01 8.8920918e+00 
-2.0694830e+02 -1.0569442e+01 9.2606115e+00 
-1.7870619e+02 -1.0192353e+01 9.8854780e+00 
-1.4797485e+02 -9.6786242e+00 1.0951336e+01 
-1.1346935e+02 -9.1430254e+00 1.2436055e+01 
-7.5199356e+01 -9.0847168e+00 1.3468484e+01 
-3.7830338e+01 -1.0282457e+01 1.1776646e+01 
-1.1774110e+01 -1.1654934e+01 5.9731517e+00 
-2.6317296e+00 -9.8596468e+00 2.0157135e+00 
CELL_DATA 99
FIELD FieldData 1
