# vtk DataFile Version 4.0
vtk output
ASCII
DATASET UNSTRUCTURED_GRID
POINTS 803 float
1.3883500e+01 -2.9994150e+02 0.0000000e+00 
1.1099975e+01 -2.3994141e+02 0.0000000e+00 
8.3215647e+00 -1.7994395e+02 0.0000000e+00 
5.5470963e+00 -1.1995242e+02 0.0000000e+00 
2.7735584e+00 -5.9970154e+01 0.0000000e+00 
0.0000000e+00 0.0000000e+00 0.0000000e+00 
-2.7735584e+00 6.0029846e+01 0.0000000e+00 
-5.5470963e+00 1.2004758e+02 0.0000000e+00 
-8.3215647e+00 1.8005605e+02 0.0000000e+00 
-1.1099975e+01 2.4005859e+02 0.0000000e+00 
-1.3883500e+01 3.0005850e+02 0.0000000e+00 
1.6387566e+02 -2.9297534e+02 0.0000000e+00 
1.6109242e+02 -2.3297275e+02 0.0000000e+00 
1.5831673e+02 -1.7297069e+02 0.0000000e+00 
1.5554602e+02 -1.1296867e+02 0.0000000e+00 
1.5277670e+02 -5.2965378e+01 0.0000000e+00 
1.5000000e+02 7.0415025e+00 0.0000000e+00 
1.4722330e+02 6.7034622e+01 0.0000000e+00 
1.4445398e+02 1.2703133e+02 0.0000000e+00 
1.4168327e+02 1.8702931e+02 0.0000000e+00 
1.3890758e+02 2.4702725e+02 0.0000000e+00 
1.3612434e+02 3.0702466e+02 0.0000000e+00 
3.1384485e+02 -2.8600635e+02 0.0000000e+00 
3.1106516e+02 -2.2599908e+02 0.0000000e+00 
3.0829349e+02 -1.6599280e+02 0.0000000e+00 
3.0552670e+02 -1.0598758e+02 0.0000000e+00 
3.0276193e+02 -4.5983929e+01 0.0000000e+00 
3.0000000e+02 1.4016196e+01 0.0000000e+00 
2.9723807e+02 7.4016075e+01 0.0000000e+00 
2.9447330e+02 1.3401242e+02 0.0000000e+00 
2.9170651e+02 1.9400720e+02 0.0000000e+00 
2.8893484e+02 2.5400092e+02 0.0000000e+00 
2.8615515e+02 3.1399365e+02 0.0000000e+00 
4.6378558e+02 -2.7905771e+02 0.0000000e+00 
4.6101709e+02 -2.1904652e+02 0.0000000e+00 
4.5825623e+02 -1.5903772e+02 0.0000000e+00 
4.5550098e+02 -9.9031357e+01 0.0000000e+00 
4.5274969e+02 -3.9027622e+01 0.0000000e+00 
4.5000000e+02 2.0973869e+01 0.0000000e+00 
4.4725031e+02 8.0972382e+01 0.0000000e+00 
4.4449902e+02 1.4096864e+02 0.0000000e+00 
4.4174377e+02 2.0096228e+02 0.0000000e+00 
4.3898291e+02 2.6095349e+02 0.0000000e+00 
4.3621442e+02 3.2094229e+02 0.0000000e+00 
6.1370105e+02 -2.7214560e+02 0.0000000e+00 
6.1094952e+02 -2.1213071e+02 0.0000000e+00 
6.0820551e+02 -1.5211914e+02 0.0000000e+00 
6.0546722e+02 -9.2110893e+01 0.0000000e+00 
6.0273267e+02 -3.2105904e+01 0.0000000e+00 
6.0000000e+02 2.7895708e+01 0.0000000e+00 
5.9726733e+02 8.7894096e+01 0.0000000e+00 
5.9453278e+02 1.4788911e+02 0.0000000e+00 
5.9179449e+02 2.0788086e+02 0.0000000e+00 
5.8905048e+02 2.6786929e+02 0.0000000e+00 
5.8629895e+02 3.2785440e+02 0.0000000e+00 
7.6359241e+02 -2.6528201e+02 0.0000000e+00 
7.6086267e+02 -2.0526340e+02 0.0000000e+00 
7.5814044e+02 -1.4524893e+02 0.0000000e+00 
7.5542383e+02 -8.5238586e+01 0.0000000e+00 
7.5271100e+02 -2.5232401e+01 0.0000000e+00 
7.5000000e+02 3.4769672e+01 0.0000000e+00 
7.4728900e+02 9.4767601e+01 0.0000000e+00 
7.4457617e+02 1.5476141e+02 0.0000000e+00 
7.4185956e+02 2.1475107e+02 0.0000000e+00 
7.3913733e+02 2.7473660e+02 0.0000000e+00 
7.3640759e+02 3.3471799e+02 0.0000000e+00 
9.1345972e+02 -2.5847876e+02 0.0000000e+00 
9.1075653e+02 -1.9845642e+02 0.0000000e+00 
9.0806085e+02 -1.3843904e+02 0.0000000e+00 
9.0537079e+02 -7.8426636e+01 0.0000000e+00 
9.0268445e+02 -1.8419193e+01 0.0000000e+00 
9.0000000e+02 4.1583286e+01 0.0000000e+00 
8.9731555e+02 1.0158080e+02 0.0000000e+00 
8.9462921e+02 1.6157336e+02 0.0000000e+00 
8.9193915e+02 2.2156096e+02 0.0000000e+00 
8.8924347e+02 2.8154358e+02 0.0000000e+00 
8.8654028e+02 3.4152124e+02 0.0000000e+00 
1.0633029e+03 -2.5174786e+02 0.0000000e+00 
1.0606311e+03 -1.9172180e+02 0.0000000e+00 
1.0579668e+03 -1.3170154e+02 0.0000000e+00 
1.0553080e+03 -7.1687057e+01 0.0000000e+00 
1.0526531e+03 -1.1678376e+01 0.0000000e+00 
1.0500000e+03 4.8324520e+01 0.0000000e+00 
1.0473469e+03 1.0832162e+02 0.0000000e+00 
1.0446920e+03 1.6831294e+02 0.0000000e+00 
1.0420332e+03 2.2829846e+02 0.0000000e+00 
1.0393689e+03 2.8827820e+02 0.0000000e+00 
1.0366971e+03 3.4825214e+02 0.0000000e+00 
1.2131219e+03 -2.4510141e+02 0.0000000e+00 
1.2104863e+03 -1.8507162e+02 0.0000000e+00 
1.2078582e+03 -1.2504847e+02 0.0000000e+00 
1.2052357e+03 -6.5031921e+01 0.0000000e+00 
1.2026169e+03 -5.0219970e+00 0.0000000e+00 
1.2000000e+03 5.4981312e+01 0.0000000e+00 
1.1973831e+03 1.1497800e+02 0.0000000e+00 
1.1947643e+03 1.7496808e+02 0.0000000e+00 
1.1921418e+03 2.3495154e+02 0.0000000e+00 
1.1895137e+03 2.9492838e+02 0.0000000e+00 
1.1868781e+03 3.5489859e+02 0.0000000e+00 
1.3629169e+03 -2.3855145e+02 0.0000000e+00 
1.3603223e+03 -1.7851794e+02 0.0000000e+00 
1.3577351e+03 -1.1849190e+02 0.0000000e+00 
1.3551537e+03 -5.8473286e+01 0.0000000e+00 
1.3525759e+03 1.5378809e+00 0.0000000e+00 
1.3500000e+03 6.1541603e+01 0.0000000e+00 
1.3474241e+03 1.2153788e+02 0.0000000e+00 
1.3448463e+03 1.8152672e+02 0.0000000e+00 
1.3422649e+03 2.4150810e+02 0.0000000e+00 
1.3396777e+03 3.0148206e+02 0.0000000e+00 
1.3370831e+03 3.6144855e+02 0.0000000e+00 
1.5126877e+03 -2.3211006e+02 0.0000000e+00 
1.5101389e+03 -1.7207285e+02 0.0000000e+00 
1.5075977e+03 -1.1204389e+02 0.0000000e+00 
1.5050620e+03 -5.2023212e+01 0.0000000e+00 
1.5025300e+03 7.9891953e+00 0.0000000e+00 
1.5000000e+03 6.7993332e+01 0.0000000e+00 
1.4974700e+03 1.2798920e+02 0.0000000e+00 
1.4949380e+03 1.8797679e+02 0.0000000e+00 
1.4924023e+03 2.4795612e+02 0.0000000e+00 
1.4898611e+03 3.0792715e+02 0.0000000e+00 
1.4873123e+03 3.6788992e+02 0.0000000e+00 
1.6624344e+03 -2.2578931e+02 0.0000000e+00 
1.6599363e+03 -1.6574835e+02 0.0000000e+00 
1.6574457e+03 -1.0571651e+02 0.0000000e+00 
1.6549607e+03 -4.5693764e+01 0.0000000e+00 
1.6524794e+03 1.4319883e+01 0.0000000e+00 
1.6500000e+03 7.4324432e+01 0.0000000e+00 
1.6475206e+03 1.3431989e+02 0.0000000e+00 
1.6450393e+03 1.9430623e+02 0.0000000e+00 
1.6425543e+03 2.5428349e+02 0.0000000e+00 
1.6400637e+03 3.1425165e+02 0.0000000e+00 
1.6375656e+03 3.7421069e+02 0.0000000e+00 
1.8121570e+03 -2.1960123e+02 0.0000000e+00 
1.8097144e+03 -1.5955656e+02 0.0000000e+00 
1.8072792e+03 -9.9521820e+01 0.0000000e+00 
1.8048496e+03 -3.9497005e+01 0.0000000e+00 
1.8024240e+03 2.0517883e+01 0.0000000e+00 
1.8000000e+03 8.0522850e+01 0.0000000e+00 
1.7975760e+03 1.4051788e+02 0.0000000e+00 
1.7951504e+03 2.0050299e+02 0.0000000e+00 
1.7927208e+03 2.6047818e+02 0.0000000e+00 
1.7902856e+03 3.2044345e+02 0.0000000e+00 
1.7878430e+03 3.8039877e+02 0.0000000e+00 
1.9618553e+03 -2.1355791e+02 0.0000000e+00 
1.9594730e+03 -1.5350952e+02 0.0000000e+00 
1.9570983e+03 -9.3471878e+01 0.0000000e+00 
1.9547290e+03 -3.3444996e+01 0.0000000e+00 
1.9523635e+03 2.6571133e+01 0.0000000e+00 
1.9500000e+03 8.6576508e+01 0.0000000e+00 
1.9476365e+03 1.4657114e+02 0.0000000e+00 
1.9452710e+03 2.0655501e+02 0.0000000e+00 
1.9429017e+03 2.6652811e+02 0.0000000e+00 
1.9405270e+03 3.2649048e+02 0.0000000e+00 
1.9381447e+03 3.8644211e+02 0.0000000e+00 
2.1115298e+03 -2.0767139e+02 0.0000000e+00 
2.1092124e+03 -1.4761928e+02 0.0000000e+00 
2.1069028e+03 -8.7578751e+01 0.0000000e+00 
2.1045986e+03 -2.7549803e+01 0.0000000e+00 
2.1022983e+03 3.2467567e+01 0.0000000e+00 
2.1000000e+03 9.2473358e+01 0.0000000e+00 
2.0977017e+03 1.5246756e+02 0.0000000e+00 
2.0954014e+03 2.1245020e+02 0.0000000e+00 
2.0930972e+03 2.7242123e+02 0.0000000e+00 
2.0907876e+03 3.3238071e+02 0.0000000e+00 
2.0884702e+03 3.9232861e+02 0.0000000e+00 
2.2611799e+03 -2.0195377e+02 0.0000000e+00 
2.2589326e+03 -1.4189793e+02 0.0000000e+00 
2.2566929e+03 -8.1854500e+01 0.0000000e+00 
2.2544587e+03 -2.1823484e+01 0.0000000e+00 
2.2522285e+03 3.8195126e+01 0.0000000e+00 
2.2500000e+03 9.8201324e+01 0.0000000e+00 
2.2477715e+03 1.5819511e+02 0.0000000e+00 
2.2455413e+03 2.1817651e+02 0.0000000e+00 
2.2433071e+03 2.7814548e+02 0.0000000e+00 
2.2410674e+03 3.3810205e+02 0.0000000e+00 
2.2388201e+03 3.9804623e+02 0.0000000e+00 
2.4108059e+03 -1.9641707e+02 0.0000000e+00 
2.4086335e+03 -1.3635751e+02 0.0000000e+00 
2.4064685e+03 -7.6311188e+01 0.0000000e+00 
2.4043093e+03 -1.6278105e+01 0.0000000e+00 
2.4021538e+03 4.3741745e+01 0.0000000e+00 
2.4000000e+03 1.0374836e+02 0.0000000e+00 
2.3978464e+03 1.6374174e+02 0.0000000e+00 
2.3956907e+03 2.2372188e+02 0.0000000e+00 
2.3935315e+03 2.8368881e+02 0.0000000e+00 
2.3913665e+03 3.4364249e+02 0.0000000e+00 
2.3891941e+03 4.0358292e+02 0.0000000e+00 
2.5604080e+03 -1.9107338e+02 0.0000000e+00 
2.5583149e+03 -1.3101010e+02 0.0000000e+00 
2.5562297e+03 -7.0960892e+01 0.0000000e+00 
2.5541501e+03 -1.0925735e+01 0.0000000e+00 
2.5520740e+03 4.9095360e+01 0.0000000e+00 
2.5500000e+03 1.0910239e+02 0.0000000e+00 
2.5479260e+03 1.6909535e+02 0.0000000e+00 
2.5458501e+03 2.2907426e+02 0.0000000e+00 
2.5437703e+03 2.8903912e+02 0.0000000e+00 
2.5416848e+03 3.4898990e+02 0.0000000e+00 
2.5395920e+03 4.0892664e+02 0.0000000e+00 
2.7099856e+03 -1.8593481e+02 0.0000000e+00 
2.7079773e+03 -1.2586781e+02 0.0000000e+00 
2.7059763e+03 -6.5815689e+01 0.0000000e+00 
2.7039812e+03 -5.7784624e+00 0.0000000e+00 
2.7019897e+03 5.4243889e+01 0.0000000e+00 
2.7000000e+03 1.1425135e+02 0.0000000e+00 
2.6980105e+03 1.7424393e+02 0.0000000e+00 
2.6960188e+03 2.3422162e+02 0.0000000e+00 
2.6940237e+03 2.9418442e+02 0.0000000e+00 
2.6920227e+03 3.5413229e+02 0.0000000e+00 
2.6900142e+03 4.1406531e+02 0.0000000e+00 
2.8595393e+03 -1.8101347e+02 0.0000000e+00 
2.8576204e+03 -1.2094274e+02 0.0000000e+00 
2.8557087e+03 -6.0887737e+01 0.0000000e+00 
2.8538025e+03 -8.4840345e-01 0.0000000e+00 
2.8519004e+03 5.9175240e+01 0.0000000e+00 
2.8500000e+03 1.1918319e+02 0.0000000e+00 
2.8480996e+03 1.7917543e+02 0.0000000e+00 
2.8461973e+03 2.3915193e+02 0.0000000e+00 
2.8442913e+03 2.9911267e+02 0.0000000e+00 
2.8423796e+03 3.5905768e+02 0.0000000e+00 
2.8404607e+03 4.1898694e+02 0.0000000e+00 
3.0090691e+03 -1.7632141e+02 0.0000000e+00 
3.0072441e+03 -1.1624708e+02 0.0000000e+00 
3.0054263e+03 -5.6189133e+01 0.0000000e+00 
3.0036143e+03 3.8523104e+00 0.0000000e+00 
3.0018059e+03 6.3877316e+01 0.0000000e+00 
2.9999995e+03 1.2388584e+02 0.0000000e+00 
2.9981934e+03 1.8387782e+02 0.0000000e+00 
2.9963853e+03 2.4385320e+02 0.0000000e+00 
[...]
POINT_DATA 803
FIELD FieldData 3
DISPLACEMENT 3 803  float
1.3883500e+01 5.8505625e-02 0.0000000e+00 
1.1099975e+01 5.8601372e-02 0.0000000e+00 
8.3215647e+00 5.6048345e-02 0.0000000e+00 
5.5470963e+00 4.7583666e-02 0.0000000e+00 
2.7735584e+00 2.9844837e-02 0.0000000e+00 
0.0000000e+00 0.0000000e+00 0.0000000e+00 
-2.7735584e+00 2.9844837e-02 0.0000000e+00 
-5.5470963e+00 4.7583666e-02 0.0000000e+00 
-8.3215647e+00 5.6048345e-02 0.0000000e+00 
-1.1099975e+01 5.8601372e-02 0.0000000e+00 
-1.3883500e+01 5.8505625e-02 0.0000000e+00 
1.3875654e+01 7.0246530e+00 0.0000000e+00 
1.1092422e+01 7.0272508e+00 0.0000000e+00 
8.3167305e+00 7.0293078e+00 0.0000000e+00 
5.5460162e+00 7.0313239e+00 0.0000000e+00 
2.7766988e+00 7.0346212e+00 0.0000000e+00 
-2.2559877e-12 7.0415025e+00 0.0000000e+00 
-2.7766988e+00 7.0346212e+00 0.0000000e+00 
-5.5460162e+00 7.0313239e+00 0.0000000e+00 
-8.3167305e+00 7.0293078e+00 0.0000000e+00 
-1.1092422e+01 7.0272508e+00 0.0000000e+00 
-1.3875654e+01 7.0246530e+00 0.0000000e+00 
1.3844850e+01 1.3993649e+01 0.0000000e+00 
1.1065145e+01 1.4000911e+01 0.0000000e+00 
8.2934923e+00 1.4007195e+01 0.0000000e+00 
5.5266919e+00 1.4012418e+01 0.0000000e+00 
2.7619462e+00 1.4016073e+01 0.0000000e+00 
-5.9013194e-12 1.4016196e+01 0.0000000e+00 
-2.7619462e+00 1.4016073e+01 0.0000000e+00 
-5.5266919e+00 1.4012418e+01 0.0000000e+00 
-8.2934923e+00 1.4007195e+01 0.0000000e+00 
-1.1065145e+01 1.4000911e+01 0.0000000e+00 
-1.3844850e+01 1.3993649e+01 0.0000000e+00 
1.3785575e+01 2.0942297e+01 0.0000000e+00 
1.1017094e+01 2.0953482e+01 0.0000000e+00 
8.2562227e+00 2.0962273e+01 0.0000000e+00 
5.5009751e+00 2.0968641e+01 0.0000000e+00 
2.7496998e+00 2.0972378e+01 0.0000000e+00 
-6.1975061e-12 2.0973869e+01 0.0000000e+00 
-2.7496998e+00 2.0972378e+01 0.0000000e+00 
-5.5009751e+00 2.0968641e+01 0.0000000e+00 
-8.2562227e+00 2.0962273e+01 0.0000000e+00 
-1.1017094e+01 2.0953482e+01 0.0000000e+00 
-1.3785575e+01 2.0942297e+01 0.0000000e+00 
1.3701030e+01 2.7854401e+01 0.0000000e+00 
1.0949532e+01 2.7869299e+01 0.0000000e+00 
8.2055330e+00 2.7880865e+01 0.0000000e+00 
5.4672256e+00 2.7889107e+01 0.0000000e+00 
2.7326446e+00 2.7894094e+01 0.0000000e+00 
2.2285273e-11 2.7895708e+01 0.0000000e+00 
-2.7326446e+00 2.7894094e+01 0.0000000e+00 
-5.4672256e+00 2.7889107e+01 0.0000000e+00 
-8.2055330e+00 2.7880865e+01 0.0000000e+00 
-1.0949532e+01 2.7869299e+01 0.0000000e+00 
-1.3701030e+01 2.7854401e+01 0.0000000e+00 
1.3592406e+01 3.4717995e+01 0.0000000e+00 
1.0862677e+01 3.4736607e+01 0.0000000e+00 
8.1404409e+00 3.4751076e+01 0.0000000e+00 
5.4238224e+00 3.4761410e+01 0.0000000e+00 
2.7109742e+00 3.4767597e+01 0.0000000e+00 
1.5002426e-10 3.4769672e+01 0.0000000e+00 
-2.7109742e+00 3.4767597e+01 0.0000000e+00 
-5.4238224e+00 3.4761410e+01 0.0000000e+00 
-8.1404409e+00 3.4751076e+01 0.0000000e+00 
-1.0862677e+01 3.4736607e+01 0.0000000e+00 
-1.3592406e+01 3.4717995e+01 0.0000000e+00 
1.3459714e+01 4.1521252e+01 0.0000000e+00 
1.0756523e+01 4.1543587e+01 0.0000000e+00 
8.0608301e+00 4.1560955e+01 0.0000000e+00 
5.3707628e+00 4.1573360e+01 0.0000000e+00 
2.6844432e+00 4.1580807e+01 0.0000000e+00 
4.9765098e-10 4.1583286e+01 0.0000000e+00 
-2.6844432e+00 4.1580807e+01 0.0000000e+00 
-5.3707628e+00 4.1573360e+01 0.0000000e+00 
-8.0608301e+00 4.1560955e+01 0.0000000e+00 
-1.0756523e+01 4.1543587e+01 0.0000000e+00 
-1.3459714e+01 4.1521252e+01 0.0000000e+00 
1.3302901e+01 4.8252144e+01 0.0000000e+00 
1.0631071e+01 4.8278198e+01 0.0000000e+00 
7.9667420e+00 4.8298462e+01 0.0000000e+00 
5.3080368e+00 4.8312939e+01 0.0000000e+00 
2.6530812e+00 4.8321625e+01 0.0000000e+00 
1.0761526e-09 4.8324520e+01 0.0000000e+00 
-2.6530812e+00 4.8321625e+01 0.0000000e+00 
-5.3080368e+00 4.8312939e+01 0.0000000e+00 
-7.9667420e+00 4.8298462e+01 0.0000000e+00 
-1.0631071e+01 4.8278198e+01 0.0000000e+00 
-1.3302901e+01 4.8252144e+01 0.0000000e+00 
1.3121962e+01 5.4898598e+01 0.0000000e+00 
1.0486320e+01 5.4928375e+01 0.0000000e+00 
7.8581781e+00 5.4951534e+01 0.0000000e+00 
5.2356606e+00 5.4968079e+01 0.0000000e+00 
2.6168931e+00 5.4978004e+01 0.0000000e+00 
1.0575711e-09 5.4981312e+01 0.0000000e+00 
-2.6168928e+00 5.4978004e+01 0.0000000e+00 
-5.2356606e+00 5.4968079e+01 0.0000000e+00 
-7.8581781e+00 5.4951534e+01 0.0000000e+00 
-1.0486320e+01 5.4928375e+01 0.0000000e+00 
-1.3121962e+01 5.4898598e+01 0.0000000e+00 
1.2916898e+01 6.1448547e+01 0.0000000e+00 
1.0322268e+01 6.1482048e+01 0.0000000e+00 
7.7351394e+00 6.1508102e+01 0.0000000e+00 
5.1536350e+00 6.1526714e+01 0.0000000e+00 
2.5758801e+00 6.1537880e+01 0.0000000e+00 
-3.2309728e-09 6.1541603e+01 0.0000000e+00 
-2.5758801e+00 6.1537880e+01 0.0000000e+00 
-5.1536350e+00 6.1526714e+01 0.0000000e+00 
-7.7351394e+00 6.1508102e+01 0.0000000e+00 
-1.0322268e+01 6.1482048e+01 0.0000000e+00 
-1.2916898e+01 6.1448547e+01 0.0000000e+00 
1.2687708e+01 6.7889938e+01 0.0000000e+00 
1.0138917e+01 6.7927162e+01 0.0000000e+00 
7.5976257e+00 6.7956108e+01 0.0000000e+00 
5.0619588e+00 6.7976791e+01 0.0000000e+00 
2.5300419e+00 6.7989197e+01 0.0000000e+00 
-2.1675072e-08 6.7993332e+01 0.0000000e+00 
-2.5300422e+00 6.7989197e+01 0.0000000e+00 
-5.0619588e+00 6.7976791e+01 0.0000000e+00 
-7.5976257e+00 6.7956108e+01 0.0000000e+00 
-1.0138917e+01 6.7927162e+01 0.0000000e+00 
-1.2687708e+01 6.7889938e+01 0.0000000e+00 
1.2434393e+01 7.4210701e+01 0.0000000e+00 
9.9362650e+00 7.4251640e+01 0.0000000e+00 
7.4456367e+00 7.4283485e+01 0.0000000e+00 
4.9606328e+00 7.4306236e+01 0.0000000e+00 
2.4793789e+00 7.4319885e+01 0.0000000e+00 
-7.0504683e-08 7.4324432e+01 0.0000000e+00 
-2.4793792e+00 7.4319885e+01 0.0000000e+00 
-4.9606328e+00 7.4306236e+01 0.0000000e+00 
-7.4456367e+00 7.4283493e+01 0.0000000e+00 
-9.9362650e+00 7.4251640e+01 0.0000000e+00 
-1.2434393e+01 7.4210701e+01 0.0000000e+00 
1.2156953e+01 8.0398773e+01 0.0000000e+00 
9.7143126e+00 8.0443443e+01 0.0000000e+00 
7.2791724e+00 8.0478180e+01 0.0000000e+00 
4.8496571e+00 8.0502998e+01 0.0000000e+00 
2.4238908e+00 8.0517883e+01 0.0000000e+00 
-1.4788921e-07 8.0522850e+01 0.0000000e+00 
-2.4238911e+00 8.0517883e+01 0.0000000e+00 
-4.8496571e+00 8.0502998e+01 0.0000000e+00 
-7.2791724e+00 8.0478180e+01 0.0000000e+00 
-9.7143126e+00 8.0443443e+01 0.0000000e+00 
-1.2156953e+01 8.0398773e+01 0.0000000e+00 
1.1855388e+01 8.6442093e+01 0.0000000e+00 
9.4730606e+00 8.6490486e+01 0.0000000e+00 
7.0982332e+00 8.6528122e+01 0.0000000e+00 
4.7290306e+00 8.6555000e+01 0.0000000e+00 
2.3635778e+00 8.6571129e+01 0.0000000e+00 
-1.2934170e-07 8.6576508e+01 0.0000000e+00 
-2.3635781e+00 8.6571129e+01 0.0000000e+00 
-4.7290306e+00 8.6555000e+01 0.0000000e+00 
-7.0982332e+00 8.6528122e+01 0.0000000e+00 
-9.4730606e+00 8.6490486e+01 0.0000000e+00 
-1.1855387e+01 8.6442093e+01 0.0000000e+00 
1.1529697e+01 9.2328606e+01 0.0000000e+00 
9.2125082e+00 9.2380714e+01 0.0000000e+00 
6.9028192e+00 9.2421249e+01 0.0000000e+00 
4.5987549e+00 9.2450195e+01 0.0000000e+00 
2.2984402e+00 9.2467567e+01 0.0000000e+00 
5.1765625e-07 9.2473358e+01 0.0000000e+00 
-2.2984395e+00 9.2467567e+01 0.0000000e+00 
-4.5987544e+00 9.2450195e+01 0.0000000e+00 
-6.9028192e+00 9.2421242e+01 0.0000000e+00 
-9.2125082e+00 9.2380714e+01 0.0000000e+00 
-1.1529696e+01 9.2328606e+01 0.0000000e+00 
1.1179879e+01 9.8046242e+01 0.0000000e+00 
8.9326544e+00 9.8102074e+01 0.0000000e+00 
6.6929293e+00 9.8145500e+01 0.0000000e+00 
4.4588294e+00 9.8176514e+01 0.0000000e+00 
2.2284794e+00 9.8195122e+01 0.0000000e+00 
3.1717668e-06 9.8201324e+01 0.0000000e+00 
-2.2284739e+00 9.8195122e+01 0.0000000e+00 
-4.4588265e+00 9.8176506e+01 0.0000000e+00 
-6.6929297e+00 9.8145493e+01 0.0000000e+00 
-8.9326563e+00 9.8102066e+01 0.0000000e+00 
-1.1179882e+01 9.8046234e+01 0.0000000e+00 
1.0805931e+01 1.0358293e+02 0.0000000e+00 
8.6334972e+00 1.0364249e+02 0.0000000e+00 
6.4685640e+00 1.0368881e+02 0.0000000e+00 
4.3092566e+00 1.0372189e+02 0.0000000e+00 
2.1536970e+00 1.0374174e+02 0.0000000e+00 
1.0030259e-05 1.0374836e+02 0.0000000e+00 
-2.1536798e+00 1.0374174e+02 0.0000000e+00 
-4.3092470e+00 1.0372189e+02 0.0000000e+00 
-6.4685655e+00 1.0368880e+02 0.0000000e+00 
-8.6335077e+00 1.0364248e+02 0.0000000e+00 
-1.0805948e+01 1.0358292e+02 0.0000000e+00 
1.0407845e+01 1.0892661e+02 0.0000000e+00 
8.3150339e+00 1.0898989e+02 0.0000000e+00 
6.2297235e+00 1.0903911e+02 0.0000000e+00 
4.1500349e+00 1.0907426e+02 0.0000000e+00 
2.0740929e+00 1.0909536e+02 0.0000000e+00 
2.0274045e-05 1.0910239e+02 0.0000000e+00 
-2.0740573e+00 1.0909536e+02 0.0000000e+00 
-4.1500149e+00 1.0907426e+02 0.0000000e+00 
-6.2297263e+00 1.0903912e+02 0.0000000e+00 
-8.3150644e+00 1.0898990e+02 0.0000000e+00 
-1.0407901e+01 1.0892663e+02 0.0000000e+00 
9.9856243e+00 1.1406519e+02 0.0000000e+00 
7.9772711e+00 1.1413219e+02 0.0000000e+00 
5.9764071e+00 1.1418431e+02 0.0000000e+00 
3.9811597e+00 1.1422153e+02 0.0000000e+00 
1.9896511e+00 1.1424389e+02 0.0000000e+00 
1.5279427e-05 1.1425135e+02 0.0000000e+00 
-1.9896227e+00 1.1424393e+02 0.0000000e+00 
-3.9811394e+00 1.1422162e+02 0.0000000e+00 
-5.9764128e+00 1.1418440e+02 0.0000000e+00 
-7.9773216e+00 1.1413230e+02 0.0000000e+00 
-9.9857407e+00 1.1406530e+02 0.0000000e+00 
9.5393028e+00 1.1898653e+02 0.0000000e+00 
7.6202407e+00 1.1905726e+02 0.0000000e+00 
5.7086263e+00 1.1911226e+02 0.0000000e+00 
3.8025906e+00 1.1915160e+02 0.0000000e+00 
1.9003116e+00 1.1917524e+02 0.0000000e+00 
-7.9361307e-05 1.1918319e+02 0.0000000e+00 
-1.9004440e+00 1.1917542e+02 0.0000000e+00 
-3.8026600e+00 1.1915192e+02 0.0000000e+00 
-5.7086234e+00 1.1911268e+02 0.0000000e+00 
-7.6202412e+00 1.1905769e+02 0.0000000e+00 
-9.5394163e+00 1.1898695e+02 0.0000000e+00 
9.0690994e+00 1.2367858e+02 0.0000000e+00 
7.2440829e+00 1.2375292e+02 0.0000000e+00 
5.4263616e+00 1.2381087e+02 0.0000000e+00 
3.6142650e+00 1.2385231e+02 0.0000000e+00 
1.8059042e+00 1.2387732e+02 0.0000000e+00 
-4.7149957e-04 1.2388584e+02 0.0000000e+00 
-1.8066925e+00 1.2387782e+02 0.0000000e+00 
-3.6146648e+00 1.2385319e+02 0.0000000e+00 
-5.4263411e+00 1.2381193e+02 0.0000000e+00 
-7.2436986e+00 1.2375404e+02 0.0000000e+00 
-9.0687208e+00 1.2367953e+02 0.0000000e+00 
8.5754948e+00 1.2812930e+02 0.0000000e+00 
6.8489714e+00 1.2820746e+02 0.0000000e+00 
5.1298075e+00 1.2826808e+02 0.0000000e+00 
3.4158690e+00 1.2831177e+02 0.0000000e+00 
1.7060292e+00 1.2833827e+02 0.0000000e+00 
-1.4550149e-03 1.2834738e+02 0.0000000e+00 
-1.7085333e+00 1.2833904e+02 0.0000000e+00 
-3.4172044e+00 1.2831319e+02 0.0000000e+00 
-5.1294885e+00 1.2826985e+02 0.0000000e+00 
-6.8474412e+00 1.2820900e+02 0.0000000e+00 
-8.5731707e+00 1.2813063e+02 0.0000000e+00 
8.0599508e+00 1.3232895e+02 0.0000000e+00 
6.4362097e+00 1.3240919e+02 0.0000000e+00 
4.8177257e+00 1.3247357e+02 0.0000000e+00 
3.2067690e+00 1.3251965e+02 0.0000000e+00 
1.6008276e+00 1.3254703e+02 0.0000000e+00 
-2.5504262e-03 1.3255586e+02 0.0000000e+00 
-1.6055069e+00 1.3254640e+02 0.0000000e+00 
-3.2100003e+00 1.3251880e+02 0.0000000e+00 
-4.8179379e+00 1.3247307e+02 0.0000000e+00 
-6.4312930e+00 1.3240913e+02 0.0000000e+00 
-8.0522070e+00 1.3232686e+02 0.0000000e+00 
7.5256691e+00 1.3626653e+02 0.0000000e+00 
5.9984274e+00 1.3635739e+02 0.0000000e+00 
4.4906850e+00 1.3642332e+02 0.0000000e+00 
2.9905782e+00 1.3646738e+02 0.0000000e+00 
1.4941323e+00 1.3649170e+02 0.0000000e+00 
-8.0629223e-04 1.3649741e+02 0.0000000e+00 
-1.4958402e+00 1.3648497e+02 0.0000000e+00 
-2.9924104e+00 1.3645454e+02 0.0000000e+00 
-4.4919567e+00 1.3640599e+02 0.0000000e+00 
-5.9960251e+00 1.3633902e+02 0.0000000e+00 
-7.5064087e+00 1.3625311e+02 0.0000000e+00 
6.9540439e+00 1.4000000e+02 0.0000000e+00 
5.5590224e+00 1.4005705e+02 0.0000000e+00 
4.1677504e+00 1.4010147e+02 0.0000000e+00 
2.7792909e+00 1.4013290e+02 0.0000000e+00 
1.3927064e+00 1.4014975e+02 0.0000000e+00 
7.0592156e-03 1.4015077e+02 0.0000000e+00 
-1.3785880e+00 1.4013515e+02 0.0000000e+00 
-2.7651727e+00 1.4010223e+02 0.0000000e+00 
-4.1536322e+00 1.4005144e+02 0.0000000e+00 
-5.5449038e+00 1.3998216e+02 0.0000000e+00 
-6.9399257e+00 1.3989362e+02 0.0000000e+00 
6.3703561e+00 1.4325073e+02 0.0000000e+00 
5.1099672e+00 1.4334532e+02 0.0000000e+00 
3.8375785e+00 1.4341415e+02 0.0000000e+00 
2.5631788e+00 1.4346028e+02 0.0000000e+00 
1.2888681e+00 1.4348584e+02 0.0000000e+00 
1.4924723e-02 1.4349194e+02 0.0000000e+00 
-1.2589233e+00 1.4347911e+02 0.0000000e+00 
-2.5331099e+00 1.4344743e+02 0.0000000e+00 
-3.8080699e+00 1.4339682e+02 0.0000000e+00 
-5.0841327e+00 1.4332695e+02 0.0000000e+00 
-6.3613796e+00 1.4323732e+02 0.0000000e+00 
5.7998867e+00 1.4628529e+02 0.0000000e+00 
4.6432347e+00 1.4637300e+02 0.0000000e+00 
3.4888248e+00 1.4644316e+02 0.0000000e+00 
2.3325129e+00 1.4649338e+02 0.0000000e+00 
1.1749352e+00 1.4652324e+02 0.0000000e+00 
1.6668858e-02 1.4653290e+02 0.0000000e+00 
-1.1420189e+00 1.4652261e+02 0.0000000e+00 
-2.3010449e+00 1.4649251e+02 0.0000000e+00 
-3.4603758e+00 1.4644264e+02 0.0000000e+00 
-4.6199145e+00 1.4637294e+02 0.0000000e+00 
-5.7793937e+00 1.4628322e+02 0.0000000e+00 
5.2240295e+00 1.4903366e+02 0.0000000e+00 
4.1822224e+00 1.4912300e+02 0.0000000e+00 
3.1405554e+00 1.4919229e+02 0.0000000e+00 
2.0992875e+00 1.4924220e+02 0.0000000e+00 
1.0576710e+00 1.4927242e+02 0.0000000e+00 
1.5573446e-02 1.4928278e+02 0.0000000e+00 
-1.0269300e+00 1.4927318e+02 0.0000000e+00 
-2.0697153e+00 1.4924362e+02 0.0000000e+00 
-3.1126375e+00 1.4919408e+02 0.0000000e+00 
-4.1555157e+00 1.4912453e+02 0.0000000e+00 
-5.1981168e+00 1.4903500e+02 0.0000000e+00 
4.6459866e+00 1.5149478e+02 0.0000000e+00 
3.7195601e+00 1.5158401e+02 0.0000000e+00 
2.7933383e+00 1.5165353e+02 0.0000000e+00 
1.8671163e+00 1.5170325e+02 0.0000000e+00 
9.4090831e-01 1.5173322e+02 0.0000000e+00 
1.4589931e-02 1.5174339e+02 0.0000000e+00 
-9.1188312e-01 1.5173372e+02 0.0000000e+00 
-1.8384796e+00 1.5170413e+02 0.0000000e+00 
-2.7651219e+00 1.5165460e+02 0.0000000e+00 
-3.6917078e+00 1.5158513e+02 0.0000000e+00 
-4.6181288e+00 1.5149573e+02 0.0000000e+00 
4.0672193e+00 1.5366632e+02 0.0000000e+00 
3.2565517e+00 1.5375565e+02 0.0000000e+00 
2.4459355e+00 1.5382513e+02 0.0000000e+00 
1.6353652e+00 1.5387480e+02 0.0000000e+00 
8.2478809e-01 1.5390465e+02 0.0000000e+00 
1.4197792e-02 1.5391466e+02 0.0000000e+00 
-7.9641885e-01 1.5390483e+02 0.0000000e+00 
-1.6070591e+00 1.5387514e+02 0.0000000e+00 
-2.4177015e+00 1.5382555e+02 0.0000000e+00 
-3.2283144e+00 1.5375607e+02 0.0000000e+00 
-4.0388694e+00 1.5366673e+02 0.0000000e+00 
3.4882097e+00 1.5554823e+02 0.0000000e+00 
2.7933705e+00 1.5563757e+02 0.0000000e+00 
2.0985413e+00 1.5570706e+02 0.0000000e+00 
1.4037209e+00 1.5575670e+02 0.0000000e+00 
7.0891088e-01 1.5578648e+02 0.0000000e+00 
1.4103152e-02 1.5579643e+02 0.0000000e+00 
-6.8070239e-01 1.5578653e+02 0.0000000e+00 
-1.3755043e+00 1.5575677e+02 0.0000000e+00 
-2.0702989e+00 1.5570715e+02 0.0000000e+00 
-2.7650831e+00 1.5563768e+02 0.0000000e+00 
-3.4598565e+00 1.5554836e+02 0.0000000e+00 
2.9091737e+00 1.5714055e+02 0.0000000e+00 
2.3301561e+00 1.5722989e+02 0.0000000e+00 
1.7511367e+00 1.5729938e+02 0.0000000e+00 
1.1721197e+00 1.5734900e+02 0.0000000e+00 
5.9310621e-01 1.5737878e+02 0.0000000e+00 
1.4098158e-02 1.5738870e+02 0.0000000e+00 
-5.6490493e-01 1.5737878e+02 0.0000000e+00 
-1.1439031e+00 1.5734900e+02 0.0000000e+00 
-1.7228971e+00 1.5729938e+02 0.0000000e+00 
-2.3018887e+00 1.5722989e+02 0.0000000e+00 
-2.8808820e+00 1.5714056e+02 0.0000000e+00 
2.3301489e+00 1.5844333e+02 0.0000000e+00 
1.8669419e+00 1.5853265e+02 0.0000000e+00 
1.4037324e+00 1.5860214e+02 0.0000000e+00 
9.4052261e-01 1.5865176e+02 0.0000000e+00 
4.7731435e-01 1.5868155e+02 0.0000000e+00 
1.4108402e-02 1.5869147e+02 0.0000000e+00 
-4.4909468e-01 1.5868153e+02 0.0000000e+00 
-9.1229528e-01 1.5865176e+02 0.0000000e+00 
-1.3754945e+00 1.5860213e+02 0.0000000e+00 
-1.8386939e+00 1.5853265e+02 0.0000000e+00 
-2.3018956e+00 1.5844331e+02 0.0000000e+00 
1.7511363e+00 1.5945659e+02 0.0000000e+00 
1.4037331e+00 1.5954591e+02 0.0000000e+00 
1.0563287e+00 1.5961540e+02 0.0000000e+00 
7.0892370e-01 1.5966502e+02 0.0000000e+00 
3.6151907e-01 1.5969481e+02 0.0000000e+00 
1.4115256e-02 1.5970473e+02 0.0000000e+00 
-3.3328763e-01 1.5969479e+02 0.0000000e+00 
-6.8068969e-01 1.5966502e+02 0.0000000e+00 
-1.0280915e+00 1.5961539e+02 0.0000000e+00 
-1.3754938e+00 1.5954591e+02 0.0000000e+00 
-1.7228972e+00 1.5945657e+02 0.0000000e+00 
1.1721292e+00 1.6018034e+02 0.0000000e+00 
9.4052738e-01 1.6026967e+02 0.0000000e+00 
7.0892513e-01 1.6033916e+02 0.0000000e+00 
4.7732270e-01 1.6038878e+02 0.0000000e+00 
2.4572022e-01 1.6041856e+02 0.0000000e+00 
1.4117892e-02 1.6042848e+02 0.0000000e+00 
-2.1748425e-01 1.6041856e+02 0.0000000e+00 
-4.4908625e-01 1.6038878e+02 0.0000000e+00 
-6.8068826e-01 1.6033914e+02 0.0000000e+00 
-9.1229051e-01 1.6026967e+02 0.0000000e+00 
-1.1438932e+00 1.6018034e+02 0.0000000e+00 
5.9312367e-01 1.6061459e+02 0.0000000e+00 
4.7732276e-01 1.6070392e+02 0.0000000e+00 
3.6152178e-01 1.6077341e+02 0.0000000e+00 
2.4572071e-01 1.6082303e+02 0.0000000e+00 
1.2991960e-01 1.6085281e+02 0.0000000e+00 
1.4118490e-02 1.6086273e+02 0.0000000e+00 
-1.0168263e-01 1.6085281e+02 0.0000000e+00 
-2.1748376e-01 1.6082303e+02 0.0000000e+00 
-3.3328494e-01 1.6077341e+02 0.0000000e+00 
-4.4908619e-01 1.6070392e+02 0.0000000e+00 
-5.6488752e-01 1.6061459e+02 0.0000000e+00 
1.4118431e-02 1.6075934e+02 0.0000000e+00 
1.4118431e-02 1.6084868e+02 0.0000000e+00 
1.4118431e-02 1.6091815e+02 0.0000000e+00 
1.4118431e-02 1.6096779e+02 0.0000000e+00 
1.4118431e-02 1.6099756e+02 0.0000000e+00 
1.4118431e-02 1.6100749e+02 0.0000000e+00 
1.4118431e-02 1.6099756e+02 0.0000000e+00 
1.4118431e-02 1.6096779e+02 0.0000000e+00 
1.4118431e-02 1.6091815e+02 0.0000000e+00 
1.4118431e-02 1.6084868e+02 0.0000000e+00 
1.4118431e-02 1.6075934e+02 0.0000000e+00 
-5.6488681e-01 1.6061459e+02 0.0000000e+00 
-4.4908589e-01 1.6070392e+02 0.0000000e+00 
-3.3328491e-01 1.6077341e+02 0.0000000e+00 
-2.1748385e-01 1.6082303e+02 0.0000000e+00 
-1.0168274e-01 1.6085281e+02 0.0000000e+00 
1.4118372e-02 1.6086273e+02 0.0000000e+00 
1.2991948e-01 1.6085281e+02 0.0000000e+00 
2.4572062e-01 1.6082303e+02 0.0000000e+00 
3.6152181e-01 1.6077341e+02 0.0000000e+00 
4.7732306e-01 1.6070392e+02 0.0000000e+00 
5.9312439e-01 1.6061459e+02 0.0000000e+00 
-1.1438923e+00 1.6018034e+02 0.0000000e+00 
-9.1229051e-01 1.6026967e+02 0.0000000e+00 
-6.8068826e-01 1.6033916e+02 0.0000000e+00 
-4.4908583e-01 1.6038878e+02 0.0000000e+00 
-2.1748337e-01 1.6041856e+02 0.0000000e+00 
1.4118970e-02 1.6042848e+02 0.0000000e+00 
2.4572110e-01 1.6041856e+02 0.0000000e+00 
4.7732311e-01 1.6038878e+02 0.0000000e+00 
7.0892513e-01 1.6033914e+02 0.0000000e+00 
9.4052738e-01 1.6026967e+02 0.0000000e+00 
1.1721301e+00 1.6018034e+02 0.0000000e+00 
-1.7228994e+00 1.5945659e+02 0.0000000e+00 
-1.3754963e+00 1.5954591e+02 0.0000000e+00 
-1.0280918e+00 1.5961540e+02 0.0000000e+00 
-6.8068683e-01 1.5966502e+02 0.0000000e+00 
-3.3328223e-01 1.5969481e+02 0.0000000e+00 
1.4121606e-02 1.5970473e+02 0.0000000e+00 
3.6152449e-01 1.5969479e+02 0.0000000e+00 
7.0892656e-01 1.5966502e+02 0.0000000e+00 
1.0563284e+00 1.5961539e+02 0.0000000e+00 
1.4037306e+00 1.5954591e+02 0.0000000e+00 
1.7511340e+00 1.5945657e+02 0.0000000e+00 
-2.3019121e+00 1.5844333e+02 0.0000000e+00 
-1.8387051e+00 1.5853265e+02 0.0000000e+00 
-1.3754956e+00 1.5860214e+02 0.0000000e+00 
-9.1228575e-01 1.5865176e+02 0.0000000e+00 
-4.4907749e-01 1.5868155e+02 0.0000000e+00 
1.4128461e-02 1.5869147e+02 0.0000000e+00 
4.7733155e-01 1.5868153e+02 0.0000000e+00 
9.4053215e-01 1.5865176e+02 0.0000000e+00 
1.4037313e+00 1.5860213e+02 0.0000000e+00 
1.8669307e+00 1.5853265e+02 0.0000000e+00 
2.3301325e+00 1.5844331e+02 0.0000000e+00 
-2.8809369e+00 1.5714055e+02 0.0000000e+00 
-2.3019192e+00 1.5722989e+02 0.0000000e+00 
-1.7228998e+00 1.5729938e+02 0.0000000e+00 
-1.1438829e+00 1.5734900e+02 0.0000000e+00 
-5.6486934e-01 1.5737878e+02 0.0000000e+00 
1.4138704e-02 1.5738870e+02 0.0000000e+00 
5.9314179e-01 1.5737878e+02 0.0000000e+00 