# vtk DataFile Version 4.0
vtk output
ASCII
DATASET UNSTRUCTURED_GRID
POINTS 2 float
0.0000000e+00 -6.0000000e+01 0.0000000e+00 
3.0164580e+03 -6.0000000e+01 0.0000000e+00 
POINT_DATA 2
FIELD FieldData 5
DISPLACEMENT 3 2  float
0.0000000e+00 0.0000000e+00 0.0000000e+00 
1.6458124e+01 0.0000000e+00 0.0000000e+00 
REACTION 3 2  float
-1.1641532e-09 6.0000000e+05 0.0000000e+00 
-5.6752469e-10 6.0000000e+05 0.0000000e+00 
PK2_STRESS_VECTOR 6 2  float
5.4695201e+00 -3.9420155e+01 -6.9616966e+01 0.0000000e+00 0.0000000e+00 0.0000000e+00 
-5.5484395e+00 -2.5476601e+01 6.5433563e+01 0.0000000e+00 0.0000000e+00 0.0000000e+00 
EQUIVALENT_PLASTIC_STRAIN 1 2  float
0.0000000e+00
0.0000000e+00
PLASTIC_STRAIN_VECTOR 4 2  float
0.0000000e+00 0.0000000e+00 0.0000000e+00 0.0000000e+00 
0.0000000e+00 0.0000000e+00 0.0000000e+00 0.0000000e+00 
