# vtk DataFile Version 4.0
vtk output
ASCII
DATASET UNSTRUCTURED_GRID
POINTS 803 float
-8.5095797e+00 -1.5029973e+02 0.0000000e+00 
-5.6576090e+00 -1.2028924e+02 0.0000000e+00 
-2.8242691e+00 -9.0222855e+01 0.0000000e+00 
0.0000000e+00 -6.0000000e+01 0.0000000e+00 
3.0244806e+00 -3.0317091e+01 0.0000000e+00 
5.8953872e+00 -4.8259318e-01 0.0000000e+00 
8.6764336e+00 2.9462847e+01 0.0000000e+00 
1.1458762e+01 5.9432362e+01 0.0000000e+00 
1.4249461e+01 8.9417366e+01 0.0000000e+00 
1.7050556e+01 1.1941136e+02 0.0000000e+00 
1.9859676e+01 1.4940778e+02 0.0000000e+00 
3.3181309e+01 -1.5428279e+02 0.0000000e+00 
3.6036381e+01 -1.2428539e+02 0.0000000e+00 
3.8883091e+01 -9.4277023e+01 0.0000000e+00 
4.1812717e+01 -6.4327293e+01 0.0000000e+00 
4.4728977e+01 -3.4347481e+01 0.0000000e+00 
4.7577488e+01 -4.4054885e+00 0.0000000e+00 
5.0351124e+01 2.5559446e+01 0.0000000e+00 
5.3130020e+01 5.5533127e+01 0.0000000e+00 
5.5916733e+01 8.5515984e+01 0.0000000e+00 
5.8715549e+01 1.1550655e+02 0.0000000e+00 
6.1527328e+01 1.4550186e+02 0.0000000e+00 
7.4941986e+01 -1.5829425e+02 0.0000000e+00 
7.7800606e+01 -1.2831953e+02 0.0000000e+00 
8.0666000e+01 -9.8351448e+01 0.0000000e+00 
8.3527252e+01 -6.8374321e+01 0.0000000e+00 
8.6386177e+01 -3.8384289e+01 0.0000000e+00 
8.9229683e+01 -8.3818493e+00 0.0000000e+00 
9.2013504e+01 2.1605595e+01 0.0000000e+00 
9.4790916e+01 5.1593002e+01 0.0000000e+00 
9.7573608e+01 8.1584412e+01 0.0000000e+00 
1.0036938e+02 1.1158051e+02 0.0000000e+00 
1.0318568e+02 1.4157956e+02 0.0000000e+00 
1.1676575e+02 -1.6229820e+02 0.0000000e+00 
1.1959664e+02 -1.3233209e+02 0.0000000e+00 
1.2242474e+02 -1.0235528e+02 0.0000000e+00 
1.2524899e+02 -7.2368607e+01 0.0000000e+00 
1.2806786e+02 -4.2369690e+01 0.0000000e+00 
1.3088126e+02 -1.2358763e+01 0.0000000e+00 
1.3366566e+02 1.7640551e+01 0.0000000e+00 
1.3643875e+02 4.7639362e+01 0.0000000e+00 
1.3921480e+02 7.7639404e+01 0.0000000e+00 
1.4200473e+02 1.0764172e+02 0.0000000e+00 
1.4481972e+02 1.3764603e+02 0.0000000e+00 
1.5862080e+02 -1.6625487e+02 0.0000000e+00 
1.6140747e+02 -1.3629056e+02 0.0000000e+00 
1.6419511e+02 -1.0631274e+02 0.0000000e+00 
1.6698164e+02 -7.6322128e+01 0.0000000e+00 
1.6976640e+02 -4.6319668e+01 0.0000000e+00 
1.7254994e+02 -1.6306532e+01 0.0000000e+00 
1.7531712e+02 1.3693833e+01 0.0000000e+00 
1.7807733e+02 4.3696972e+01 0.0000000e+00 
1.8084071e+02 7.3702034e+01 0.0000000e+00 
1.8361833e+02 1.0370921e+02 0.0000000e+00 
1.8642174e+02 1.3371887e+02 0.0000000e+00 
2.0049644e+02 -1.7015605e+02 0.0000000e+00 
2.0323941e+02 -1.4019624e+02 0.0000000e+00 
2.0598431e+02 -1.1022157e+02 0.0000000e+00 
2.0873103e+02 -8.0232796e+01 0.0000000e+00 
2.1147972e+02 -5.0231514e+01 0.0000000e+00 
2.1423112e+02 -2.0219675e+01 0.0000000e+00 
2.1697290e+02 9.7799349e+00 0.0000000e+00 
2.1971060e+02 3.9783695e+01 0.0000000e+00 
2.2245302e+02 6.9790993e+01 0.0000000e+00 
2.2520978e+02 9.9801659e+01 0.0000000e+00 
2.2799113e+02 1.2981621e+02 0.0000000e+00 
2.4239606e+02 -1.7400357e+02 0.0000000e+00 
2.4509409e+02 -1.4404898e+02 0.0000000e+00 
2.4779463e+02 -1.1407914e+02 0.0000000e+00 
2.5049886e+02 -8.4094902e+01 0.0000000e+00 
2.5320781e+02 -5.4097721e+01 0.0000000e+00 
2.5592261e+02 -2.4089474e+01 0.0000000e+00 
2.5863239e+02 5.9085660e+00 0.0000000e+00 
2.6133984e+02 3.5912010e+01 0.0000000e+00 
2.6405295e+02 6.5920448e+01 0.0000000e+00 
2.6678021e+02 9.5933868e+01 0.0000000e+00 
2.6953040e+02 1.2595278e+02 0.0000000e+00 
2.8432257e+02 -1.7779443e+02 0.0000000e+00 
2.8697244e+02 -1.4784555e+02 0.0000000e+00 
2.8962595e+02 -1.1788120e+02 0.0000000e+00 
2.9228461e+02 -8.7902466e+01 0.0000000e+00 
2.9494992e+02 -5.7910568e+01 0.0000000e+00 
2.9762323e+02 -2.7907040e+01 0.0000000e+00 
3.0029468e+02 2.0891089e+00 0.0000000e+00 
3.0296490e+02 3.2091949e+01 0.0000000e+00 
3.0564117e+02 6.2101265e+01 0.0000000e+00 
3.0833112e+02 9.2117142e+01 0.0000000e+00 
3.1104245e+02 1.2214001e+02 0.0000000e+00 
3.2627664e+02 -1.8152321e+02 0.0000000e+00 
3.2887469e+02 -1.5158023e+02 0.0000000e+00 
3.3147772e+02 -1.2162193e+02 0.0000000e+00 
3.3408731e+02 -9.1649193e+01 0.0000000e+00 
3.3670496e+02 -6.1662949e+01 0.0000000e+00 
3.3933197e+02 -3.1664356e+01 0.0000000e+00 
3.4195914e+02 -1.6701157e+00 0.0000000e+00 
3.4458557e+02 2.8332144e+01 0.0000000e+00 
3.4721805e+02 5.8342350e+01 0.0000000e+00 
3.4986371e+02 8.8360588e+01 0.0000000e+00 
3.5252963e+02 1.1838716e+02 0.0000000e+00 
3.6825595e+02 -1.8518475e+02 0.0000000e+00 
3.7080008e+02 -1.5524712e+02 0.0000000e+00 
3.7334979e+02 -1.2529497e+02 0.0000000e+00 
3.7590656e+02 -9.5328598e+01 0.0000000e+00 
3.7847223e+02 -6.5348175e+01 0.0000000e+00 
3.8104813e+02 -3.5354340e+01 0.0000000e+00 
3.8362531e+02 -5.3617983e+00 0.0000000e+00 
3.8620160e+02 2.4640207e+01 0.0000000e+00 
3.8878384e+02 5.4651638e+01 0.0000000e+00 
3.9137894e+02 8.4672371e+01 0.0000000e+00 
3.9399344e+02 1.1470251e+02 0.0000000e+00 
4.1025629e+02 -1.8877681e+02 0.0000000e+00 
4.1274615e+02 -1.5884308e+02 0.0000000e+00 
4.1524176e+02 -1.2889485e+02 0.0000000e+00 
4.1774286e+02 -9.8934265e+01 0.0000000e+00 
4.2025214e+02 -6.8959976e+01 0.0000000e+00 
4.2277182e+02 -3.8970688e+01 0.0000000e+00 
4.2529276e+02 -8.9793777e+00 0.0000000e+00 
4.2781226e+02 2.1023407e+01 0.0000000e+00 
4.3033838e+02 5.1036922e+01 0.0000000e+00 
4.3287747e+02 8.1060402e+01 0.0000000e+00 
4.3543509e+02 1.1109402e+02 0.0000000e+00 
4.5227612e+02 -1.9229742e+02 0.0000000e+00 
4.5470862e+02 -1.6236720e+02 0.0000000e+00 
4.5714966e+02 -1.3242044e+02 0.0000000e+00 
4.5959772e+02 -1.0246070e+02 0.0000000e+00 
4.6204889e+02 -7.2493423e+01 0.0000000e+00 
4.6450476e+02 -4.2507885e+01 0.0000000e+00 
4.6695950e+02 -1.2515496e+01 0.0000000e+00 
4.6941568e+02 1.7490259e+01 0.0000000e+00 
4.7188135e+02 4.7506218e+01 0.0000000e+00 
4.7436011e+02 7.7532356e+01 0.0000000e+00 
4.7685614e+02 1.0756917e+02 0.0000000e+00 
4.9431784e+02 -1.9573863e+02 0.0000000e+00 
4.9668509e+02 -1.6581314e+02 0.0000000e+00 
4.9906570e+02 -1.3587172e+02 0.0000000e+00 
5.0147186e+02 -1.0592232e+02 0.0000000e+00 
5.0387683e+02 -7.5947556e+01 0.0000000e+00 
5.0624622e+02 -4.5951893e+01 0.0000000e+00 
5.0861975e+02 -1.5956851e+01 0.0000000e+00 
5.1101135e+02 1.4049332e+01 0.0000000e+00 
5.1341315e+02 4.4066376e+01 0.0000000e+00 
5.1582788e+02 7.4094482e+01 0.0000000e+00 
5.1825867e+02 1.0413407e+02 0.0000000e+00 
5.3638074e+02 -1.9908728e+02 0.0000000e+00 
5.3867413e+02 -1.6916566e+02 0.0000000e+00 
5.4098059e+02 -1.3922650e+02 0.0000000e+00 
5.4329413e+02 -1.0926369e+02 0.0000000e+00 
5.4563269e+02 -7.9284424e+01 0.0000000e+00 
5.4795520e+02 -4.9297806e+01 0.0000000e+00 
5.5027460e+02 -1.9302004e+01 0.0000000e+00 
5.5259955e+02 1.0703432e+01 0.0000000e+00 
5.5493469e+02 4.0720951e+01 0.0000000e+00 
5.5728204e+02 7.0750679e+01 0.0000000e+00 
5.5964465e+02 1.0079278e+02 0.0000000e+00 
5.7845966e+02 -2.0233282e+02 0.0000000e+00 
5.8067395e+02 -1.7241327e+02 0.0000000e+00 
5.8289935e+02 -1.4247247e+02 0.0000000e+00 
5.8513574e+02 -1.1251070e+02 0.0000000e+00 
5.8740649e+02 -8.2536568e+01 0.0000000e+00 
5.8966650e+02 -5.2550625e+01 0.0000000e+00 
5.9192224e+02 -2.2554392e+01 0.0000000e+00 
5.9418048e+02 7.4528923e+00 0.0000000e+00 
5.9644617e+02 3.7471977e+01 0.0000000e+00 
5.9872321e+02 6.7503677e+01 0.0000000e+00 
6.0101501e+02 9.7548309e+01 0.0000000e+00 
6.2055255e+02 -2.0547206e+02 0.0000000e+00 
6.2268683e+02 -1.7555521e+02 0.0000000e+00 
6.2483331e+02 -1.4561740e+02 0.0000000e+00 
6.2699280e+02 -1.1565944e+02 0.0000000e+00 
6.2919098e+02 -8.5687553e+01 0.0000000e+00 
6.3138062e+02 -5.5703091e+01 0.0000000e+00 
6.3356671e+02 -2.5706470e+01 0.0000000e+00 
6.3575421e+02 4.3021560e+00 0.0000000e+00 
6.3794788e+02 3.4323185e+01 0.0000000e+00 
6.4015173e+02 6.4357079e+01 0.0000000e+00 
6.4236975e+02 9.4404282e+01 0.0000000e+00 
6.6266205e+02 -2.0850520e+02 0.0000000e+00 
6.6471564e+02 -1.7859212e+02 0.0000000e+00 
6.6678186e+02 -1.4865782e+02 0.0000000e+00 
6.6886163e+02 -1.1870302e+02 0.0000000e+00 
6.7098328e+02 -8.8732994e+01 0.0000000e+00 
6.7309772e+02 -5.8749363e+01 0.0000000e+00 
6.7520917e+02 -2.8752625e+01 0.0000000e+00 
6.7732202e+02 1.2570434e+00 0.0000000e+00 
6.7944031e+02 3.1279707e+01 0.0000000e+00 
6.8156805e+02 6.1315666e+01 0.0000000e+00 
6.8370905e+02 9.1365349e+01 0.0000000e+00 
7.0479059e+02 -2.1143018e+02 0.0000000e+00 
7.0676068e+02 -1.8152090e+02 0.0000000e+00 
7.0874365e+02 -1.5158949e+02 0.0000000e+00 
7.1074048e+02 -1.2163686e+02 0.0000000e+00 
7.1278186e+02 -9.1668045e+01 0.0000000e+00 
7.1481708e+02 -6.1684883e+01 0.0000000e+00 
7.1685010e+02 -3.1687872e+01 0.0000000e+00 
7.1888464e+02 -1.6773109e+00 0.0000000e+00 
7.2092444e+02 2.8346758e+01 0.0000000e+00 
7.2297296e+02 5.8384552e+01 0.0000000e+00 
7.2503363e+02 8.8436531e+01 0.0000000e+00 
7.4694006e+02 -2.1424240e+02 0.0000000e+00 
7.4882227e+02 -1.8433694e+02 0.0000000e+00 
7.5071783e+02 -1.5440778e+02 0.0000000e+00 
7.5262787e+02 -1.2445628e+02 0.0000000e+00 
7.5458545e+02 -9.4488121e+01 0.0000000e+00 
7.5653796e+02 -6.4504990e+01 0.0000000e+00 
7.5848920e+02 -3.4507530e+01 0.0000000e+00 
7.6044257e+02 -4.4961624e+00 0.0000000e+00 
7.6240100e+02 2.5529070e+01 0.0000000e+00 
7.6436749e+02 5.5568432e+01 0.0000000e+00 
7.6634491e+02 8.5622437e+01 0.0000000e+00 
7.8911334e+02 -2.1693497e+02 0.0000000e+00 
7.9090094e+02 -1.8703400e+02 0.0000000e+00 
7.9270374e+02 -1.5710715e+02 0.0000000e+00 
7.9452271e+02 -1.2715630e+02 0.0000000e+00 
7.9639258e+02 -9.7188354e+01 0.0000000e+00 
7.9825928e+02 -6.7204865e+01 0.0000000e+00 
8.0012634e+02 -3.7206970e+01 0.0000000e+00 
8.0199615e+02 -7.1951766e+00 0.0000000e+00 
8.0387079e+02 2.2830618e+01 0.0000000e+00 
8.0575262e+02 5.2871075e+01 0.0000000e+00 
8.0764435e+02 8.2926811e+01 0.0000000e+00 
8.3131329e+02 -2.1949780e+02 0.0000000e+00 
8.3299890e+02 -1.8960265e+02 0.0000000e+00 
8.3470142e+02 -1.5968074e+02 0.0000000e+00 
8.3642371e+02 -1.2973151e+02 0.0000000e+00 
8.3820129e+02 -9.9763489e+01 0.0000000e+00 
8.3997955e+02 -6.9779411e+01 0.0000000e+00 
8.4176160e+02 -3.9781475e+01 0.0000000e+00 
[...]
POINT_DATA 803
FIELD FieldData 5
DISPLACEMENT 3 803  float
-8.5095797e+00 -2.9972678e-01 0.0000000e+00 
-5.6576090e+00 -2.8923646e-01 0.0000000e+00 
-2.8242691e+00 -2.2285794e-01 0.0000000e+00 
0.0000000e+00 0.0000000e+00 0.0000000e+00 
3.0244806e+00 -3.1709135e-01 0.0000000e+00 
5.8953872e+00 -4.8259318e-01 0.0000000e+00 
8.6764336e+00 -5.3715259e-01 0.0000000e+00 
1.1458762e+01 -5.6763750e-01 0.0000000e+00 
1.4249461e+01 -5.8263391e-01 0.0000000e+00 
1.7050556e+01 -5.8864129e-01 0.0000000e+00 
1.9859676e+01 -5.9222597e-01 0.0000000e+00 
-8.4853573e+00 -4.2827849e+00 0.0000000e+00 
-5.6302872e+00 -4.2853866e+00 0.0000000e+00 
-2.7835770e+00 -4.2770205e+00 0.0000000e+00 
1.4605136e-01 -4.3272943e+00 0.0000000e+00 
3.0623119e+00 -4.3474817e+00 0.0000000e+00 
5.9108224e+00 -4.4054885e+00 0.0000000e+00 
8.6844568e+00 -4.4405537e+00 0.0000000e+00 
1.1463351e+01 -4.4668736e+00 0.0000000e+00 
1.4250065e+01 -4.4840178e+00 0.0000000e+00 
1.7048882e+01 -4.4934444e+00 0.0000000e+00 
1.9860662e+01 -4.4981360e+00 0.0000000e+00 
-8.3913479e+00 -8.2942524e+00 0.0000000e+00 
-5.5327296e+00 -8.3195372e+00 0.0000000e+00 
-2.6673346e+00 -8.3514519e+00 0.0000000e+00 
1.9391967e-01 -8.3743191e+00 0.0000000e+00 
3.0528414e+00 -8.3842907e+00 0.0000000e+00 
5.8963518e+00 -8.3818493e+00 0.0000000e+00 
8.6801701e+00 -8.3944044e+00 0.0000000e+00 
1.1457583e+01 -8.4069977e+00 0.0000000e+00 
1.4240277e+01 -8.4155874e+00 0.0000000e+00 
1.7036045e+01 -8.4194899e+00 0.0000000e+00 
1.9852350e+01 -8.4204350e+00 0.0000000e+00 
-8.2342520e+00 -1.2298200e+01 0.0000000e+00 
-5.4033566e+00 -1.2332090e+01 0.0000000e+00 
-2.5752628e+00 -1.2355274e+01 0.0000000e+00 
2.4898206e-01 -1.2368608e+01 0.0000000e+00 
3.0678561e+00 -1.2369692e+01 0.0000000e+00 
5.8812633e+00 -1.2358763e+01 0.0000000e+00 
8.6656590e+00 -1.2359450e+01 0.0000000e+00 
1.1438748e+01 -1.2360640e+01 0.0000000e+00 
1.4214801e+01 -1.2360600e+01 0.0000000e+00 
1.7004726e+01 -1.2358274e+01 0.0000000e+00 
1.9819710e+01 -1.2353971e+01 0.0000000e+00 
-8.0458660e+00 -1.6254862e+01 0.0000000e+00 
-5.2592001e+00 -1.6290556e+01 0.0000000e+00 
-2.4715490e+00 -1.6312748e+01 0.0000000e+00 
3.1497809e-01 -1.6322126e+01 0.0000000e+00 
3.0997298e+00 -1.6319670e+01 0.0000000e+00 
5.8832684e+00 -1.6306532e+01 0.0000000e+00 
8.6504545e+00 -1.6306168e+01 0.0000000e+00 
1.1410671e+01 -1.6303026e+01 0.0000000e+00 
1.4174049e+01 -1.6297964e+01 0.0000000e+00 
1.6951658e+01 -1.6290787e+01 0.0000000e+00 
1.9755075e+01 -1.6281124e+01 0.0000000e+00 
-7.8368926e+00 -2.0156057e+01 0.0000000e+00 
-5.0939231e+00 -2.0196251e+01 0.0000000e+00 
-2.3490245e+00 -2.0221569e+01 0.0000000e+00 
3.9770299e-01 -2.0232798e+01 0.0000000e+00 
3.1463809e+00 -2.0231514e+01 0.0000000e+00 
5.8977976e+00 -2.0219675e+01 0.0000000e+00 
8.6395617e+00 -2.0220066e+01 0.0000000e+00 
1.1377272e+01 -2.0216305e+01 0.0000000e+00 
1.4119690e+01 -2.0209011e+01 0.0000000e+00 
1.6876448e+01 -2.0198341e+01 0.0000000e+00 
1.9657804e+01 -2.0183792e+01 0.0000000e+00 
-7.6039367e+00 -2.4003576e+01 0.0000000e+00 
-4.9059181e+00 -2.4048981e+01 0.0000000e+00 
-2.2053616e+00 -2.4079138e+01 0.0000000e+00 
4.9886149e-01 -2.4094900e+01 0.0000000e+00 
3.2078128e+00 -2.4097721e+01 0.0000000e+00 
5.9226007e+00 -2.4089474e+01 0.0000000e+00 
8.6323805e+00 -2.4091434e+01 0.0000000e+00 
1.1339838e+01 -2.4087990e+01 0.0000000e+00 
1.4052955e+01 -2.4079552e+01 0.0000000e+00 
1.6780222e+01 -2.4066130e+01 0.0000000e+00 
1.9530390e+01 -2.4047220e+01 0.0000000e+00 
-7.3440933e+00 -2.7794430e+01 0.0000000e+00 
-4.6942282e+00 -2.7845554e+01 0.0000000e+00 
-2.0407307e+00 -2.7881205e+01 0.0000000e+00 
6.1794847e-01 -2.7902462e+01 0.0000000e+00 
3.2832584e+00 -2.7910570e+01 0.0000000e+00 
5.9565549e+00 -2.7907040e+01 0.0000000e+00 
8.6280193e+00 -2.7910891e+01 0.0000000e+00 
1.1298232e+01 -2.7908051e+01 0.0000000e+00 
1.3974494e+01 -2.7898733e+01 0.0000000e+00 
1.6664444e+01 -2.7882860e+01 0.0000000e+00 
1.9375784e+01 -2.7859995e+01 0.0000000e+00 
-7.0566831e+00 -3.1523203e+01 0.0000000e+00 
-4.4586482e+00 -3.1580227e+01 0.0000000e+00 
-1.8556139e+00 -3.1621931e+01 0.0000000e+00 
7.5398630e-01 -3.1649191e+01 0.0000000e+00 
3.3716156e+00 -3.1662949e+01 0.0000000e+00 
5.9986296e+00 -3.1664356e+01 0.0000000e+00 
8.6258154e+00 -3.1670116e+01 0.0000000e+00 
1.1252230e+01 -3.1667856e+01 0.0000000e+00 
1.3884718e+01 -3.1657648e+01 0.0000000e+00 
1.6530376e+01 -3.1639412e+01 0.0000000e+00 
1.9196291e+01 -3.1612841e+01 0.0000000e+00 
-6.7440519e+00 -3.5184746e+01 0.0000000e+00 
-4.1999068e+00 -3.5247120e+01 0.0000000e+00 
-1.6502122e+00 -3.5294968e+01 0.0000000e+00 
9.0654868e-01 -3.5328594e+01 0.0000000e+00 
3.4722190e+00 -3.5348179e+01 0.0000000e+00 
6.0481191e+00 -3.5354340e+01 0.0000000e+00 
8.6253099e+00 -3.5361797e+01 0.0000000e+00 
1.1201592e+01 -3.5359791e+01 0.0000000e+00 
1.3783850e+01 -3.5348362e+01 0.0000000e+00 
1.6378939e+01 -3.5327633e+01 0.0000000e+00 
1.8993439e+01 -3.5297485e+01 0.0000000e+00 
-6.4103918e+00 -3.8776814e+01 0.0000000e+00 
-3.9205103e+00 -3.8843071e+01 0.0000000e+00 
-1.4249119e+00 -3.8894852e+01 0.0000000e+00 
1.0761962e+00 -3.8934261e+01 0.0000000e+00 
3.5854557e+00 -3.8959976e+01 0.0000000e+00 
6.1051669e+00 -3.8970688e+01 0.0000000e+00 
8.6260996e+00 -3.8979378e+01 0.0000000e+00 
1.1145584e+01 -3.8976593e+01 0.0000000e+00 
1.3671700e+01 -3.8963078e+01 0.0000000e+00 
1.6210812e+01 -3.8939598e+01 0.0000000e+00 
1.8768433e+01 -3.8905983e+01 0.0000000e+00 
-6.0571990e+00 -4.2297417e+01 0.0000000e+00 
-3.6247299e+00 -4.2367207e+01 0.0000000e+00 
-1.1836721e+00 -4.2420448e+01 0.0000000e+00 
1.2643979e+00 -4.2460697e+01 0.0000000e+00 
3.7155452e+00 -4.2493420e+01 0.0000000e+00 
6.1714201e+00 -4.2507885e+01 0.0000000e+00 
8.6261835e+00 -4.2515495e+01 0.0000000e+00 
1.1082343e+01 -4.2509743e+01 0.0000000e+00 
1.3548014e+01 -4.2493782e+01 0.0000000e+00 
1.6026762e+01 -4.2467644e+01 0.0000000e+00 
1.8522816e+01 -4.2430828e+01 0.0000000e+00 
-5.6821656e+00 -4.5738636e+01 0.0000000e+00 
-3.3149004e+00 -4.5813137e+01 0.0000000e+00 
-9.3428934e-01 -4.5871712e+01 0.0000000e+00 
1.4718760e+00 -4.5922318e+01 0.0000000e+00 
3.8768270e+00 -4.5947556e+01 0.0000000e+00 
6.2462058e+00 -4.5951893e+01 0.0000000e+00 
8.6197376e+00 -4.5956852e+01 0.0000000e+00 
1.1011340e+01 -4.5950668e+01 0.0000000e+00 
1.3413172e+01 -4.5933624e+01 0.0000000e+00 
1.5827909e+01 -4.5905518e+01 0.0000000e+00 
1.8258698e+01 -4.5865925e+01 0.0000000e+00 
-5.2859325e+00 -4.9087280e+01 0.0000000e+00 
-2.9925101e+00 -4.9165668e+01 0.0000000e+00 
-6.8608493e-01 -4.9226498e+01 0.0000000e+00 
1.6274867e+00 -4.9263683e+01 0.0000000e+00 
3.9660196e+00 -4.9284420e+01 0.0000000e+00 
6.2885127e+00 -4.9297806e+01 0.0000000e+00 
8.6079426e+00 -4.9302002e+01 0.0000000e+00 
1.0932891e+01 -4.9296566e+01 0.0000000e+00 
1.3268016e+01 -4.9279049e+01 0.0000000e+00 
1.5615389e+01 -4.9249325e+01 0.0000000e+00 
1.7978010e+01 -4.9207222e+01 0.0000000e+00 
-4.8736572e+00 -5.2332817e+01 0.0000000e+00 
-2.6593823e+00 -5.2413261e+01 0.0000000e+00 
-4.3398029e-01 -5.2472466e+01 0.0000000e+00 
1.8024222e+00 -5.2510704e+01 0.0000000e+00 
4.0731373e+00 -5.2536568e+01 0.0000000e+00 
6.3331494e+00 -5.2550625e+01 0.0000000e+00 
8.5889330e+00 -5.2554394e+01 0.0000000e+00 
1.0847172e+01 -5.2547108e+01 0.0000000e+00 
1.3112841e+01 -5.2528023e+01 0.0000000e+00 
1.5389878e+01 -5.2496323e+01 0.0000000e+00 
1.7681662e+01 -5.2451691e+01 0.0000000e+00 
-4.4474254e+00 -5.5472065e+01 0.0000000e+00 
-2.3131688e+00 -5.5555210e+01 0.0000000e+00 
-1.6668282e-01 -5.5617405e+01 0.0000000e+00 
1.9928179e+00 -5.5659443e+01 0.0000000e+00 
4.1909719e+00 -5.5687557e+01 0.0000000e+00 
6.3806024e+00 -5.5703091e+01 0.0000000e+00 
8.5666885e+00 -5.5706470e+01 0.0000000e+00 
1.0754214e+01 -5.5697845e+01 0.0000000e+00 
1.2947848e+01 -5.5676815e+01 0.0000000e+00 
1.5151718e+01 -5.5642918e+01 0.0000000e+00 
1.7369728e+01 -5.5595715e+01 0.0000000e+00 
-4.0046349e+00 -5.8505203e+01 0.0000000e+00 
-1.9510067e+00 -5.8592121e+01 0.0000000e+00 
1.1519881e-01 -5.8657822e+01 0.0000000e+00 
2.1949673e+00 -5.8703022e+01 0.0000000e+00 
4.3166265e+00 -5.8732990e+01 0.0000000e+00 
6.4310331e+00 -5.8749363e+01 0.0000000e+00 
8.5425053e+00 -5.8752625e+01 0.0000000e+00 
1.0655345e+01 -5.8742958e+01 0.0000000e+00 
1.2773665e+01 -5.8720291e+01 0.0000000e+00 
1.4901389e+01 -5.8684334e+01 0.0000000e+00 
1.7042366e+01 -5.8634647e+01 0.0000000e+00 
-3.5427310e+00 -6.1430183e+01 0.0000000e+00 
-1.5726229e+00 -6.1520897e+01 0.0000000e+00 
4.1032034e-01 -6.1589489e+01 0.0000000e+00 
2.4071169e+00 -6.1636856e+01 0.0000000e+00 
4.4485483e+00 -6.1668041e+01 0.0000000e+00 
6.4837556e+00 -6.1684883e+01 0.0000000e+00 
8.5167408e+00 -6.1687874e+01 0.0000000e+00 
1.0551324e+01 -6.1677311e+01 0.0000000e+00 
1.2591134e+01 -6.1653240e+01 0.0000000e+00 
1.4639654e+01 -6.1615448e+01 0.0000000e+00 
1.6700325e+01 -6.1563473e+01 0.0000000e+00 
-3.0599377e+00 -6.4242401e+01 0.0000000e+00 
-1.1777574e+00 -6.4336952e+01 0.0000000e+00 
7.1782631e-01 -6.4407776e+01 0.0000000e+00 
2.6278656e+00 -6.4456284e+01 0.0000000e+00 
4.5854502e+00 -6.4488121e+01 0.0000000e+00 
6.5379643e+00 -6.4504990e+01 0.0000000e+00 
8.4892235e+00 -6.4507530e+01 0.0000000e+00 
1.0442556e+01 -6.4496162e+01 0.0000000e+00 
1.2400996e+01 -6.4470932e+01 0.0000000e+00 
1.4367485e+01 -6.4431564e+01 0.0000000e+00 
1.6344915e+01 -6.4377563e+01 0.0000000e+00 
-2.5533538e+00 -6.6934959e+01 0.0000000e+00 
-7.6572937e-01 -6.7033997e+01 0.0000000e+00 
1.0370409e+00 -6.7107147e+01 0.0000000e+00 
2.8560219e+00 -6.7156303e+01 0.0000000e+00 
4.7259264e+00 -6.7188354e+01 0.0000000e+00 
6.5926394e+00 -6.7204865e+01 0.0000000e+00 
8.4596844e+00 -6.7206970e+01 0.0000000e+00 
1.0329496e+01 -6.7195175e+01 0.0000000e+00 
1.2204146e+01 -6.7169380e+01 0.0000000e+00 
1.4085967e+01 -6.7128922e+01 0.0000000e+00 
1.5977657e+01 -6.7073189e+01 0.0000000e+00 
-2.0200200e+00 -6.9497795e+01 0.0000000e+00 
-3.3445692e-01 -6.9602646e+01 0.0000000e+00 
1.3681093e+00 -6.9680740e+01 0.0000000e+00 
3.0903633e+00 -6.9731499e+01 0.0000000e+00 
4.8679833e+00 -6.9763489e+01 0.0000000e+00 
6.6462259e+00 -6.9779411e+01 0.0000000e+00 
8.4282637e+00 -6.9781479e+01 0.0000000e+00 
1.0213586e+01 -6.9770905e+01 0.0000000e+00 
1.2001951e+01 -6.9745850e+01 0.0000000e+00 
1.3796075e+01 -6.9704865e+01 0.0000000e+00 
1.5599602e+01 -6.9647598e+01 0.0000000e+00 
-1.4616967e+00 -7.1922516e+01 0.0000000e+00 
1.1925475e-01 -7.2032722e+01 0.0000000e+00 
1.7154626e+00 -7.2117821e+01 0.0000000e+00 
3.3306293e+00 -7.2175995e+01 0.0000000e+00 
5.0054102e+00 -7.2207214e+01 0.0000000e+00 
6.6969671e+00 -7.2221619e+01 0.0000000e+00 
8.3986092e+00 -7.2229111e+01 0.0000000e+00 
1.0097755e+01 -7.2222687e+01 0.0000000e+00 
1.1795636e+01 -7.2198708e+01 0.0000000e+00 
1.3498200e+01 -7.2157089e+01 0.0000000e+00 
1.5210498e+01 -7.2098129e+01 0.0000000e+00 
-8.8423425e-01 -7.4209648e+01 0.0000000e+00 
5.9535885e-01 -7.4323090e+01 0.0000000e+00 
2.0866146e+00 -7.4409103e+01 0.0000000e+00 
3.5752275e+00 -7.4460434e+01 0.0000000e+00 
5.1296215e+00 -7.4508331e+01 0.0000000e+00 
6.7499223e+00 -7.4547020e+01 0.0000000e+00 
8.3773394e+00 -7.4557884e+01 0.0000000e+00 
9.9825268e+00 -7.4550362e+01 0.0000000e+00 
1.1585146e+01 -7.4524796e+01 0.0000000e+00 
1.3191922e+01 -7.4481422e+01 0.0000000e+00 
1.4808823e+01 -7.4420341e+01 0.0000000e+00 
-2.8814042e-01 -7.6365410e+01 0.0000000e+00 
1.0932345e+00 -7.6483063e+01 0.0000000e+00 
2.4898818e+00 -7.6574463e+01 0.0000000e+00 
3.9137199e+00 -7.6651611e+01 0.0000000e+00 
5.3665729e+00 -7.6714355e+01 0.0000000e+00 
6.8475747e+00 -7.6749207e+01 0.0000000e+00 
8.3610115e+00 -7.6755981e+01 0.0000000e+00 
9.8666458e+00 -7.6744156e+01 0.0000000e+00 
1.1369725e+01 -7.6715752e+01 0.0000000e+00 
1.2876806e+01 -7.6670197e+01 0.0000000e+00 
1.4393395e+01 -7.6606865e+01 0.0000000e+00 
3.3159411e-01 -7.8390877e+01 0.0000000e+00 
1.6130010e+00 -7.8514679e+01 0.0000000e+00 
2.9145579e+00 -7.8615959e+01 0.0000000e+00 
4.2383885e+00 -7.8696266e+01 0.0000000e+00 
5.5842705e+00 -7.8754646e+01 0.0000000e+00 
6.9528661e+00 -7.8789246e+01 0.0000000e+00 
8.3516264e+00 -7.8799942e+01 0.0000000e+00 
9.7505074e+00 -7.8789970e+01 0.0000000e+00 
1.1149948e+01 -7.8761253e+01 0.0000000e+00 
1.2553414e+01 -7.8714531e+01 0.0000000e+00 
1.3965047e+01 -7.8649399e+01 0.0000000e+00 
9.7444624e-01 -8.0277573e+01 0.0000000e+00 
2.1490080e+00 -8.0405785e+01 0.0000000e+00 
3.3439867e+00 -8.0509468e+01 0.0000000e+00 
4.5600948e+00 -8.0589653e+01 0.0000000e+00 
5.7978554e+00 -8.0646561e+01 0.0000000e+00 
7.0579739e+00 -8.0680084e+01 0.0000000e+00 
8.3458614e+00 -8.0691711e+01 0.0000000e+00 
9.6351643e+00 -8.0683342e+01 0.0000000e+00 
1.0926896e+01 -8.0655365e+01 0.0000000e+00 
1.2223046e+01 -8.0608200e+01 0.0000000e+00 
1.3526181e+01 -8.0541763e+01 0.0000000e+00 
1.6336882e+00 -8.2014488e+01 0.0000000e+00 
2.6955192e+00 -8.2145088e+01 0.0000000e+00 
3.7789783e+00 -8.2250114e+01 0.0000000e+00 
4.8843102e+00 -8.2330582e+01 0.0000000e+00 
6.0118666e+00 -8.2387131e+01 0.0000000e+00 
7.1621957e+00 -8.2420135e+01 0.0000000e+00 
8.3401356e+00 -8.2431679e+01 0.0000000e+00 
9.5191145e+00 -8.2423538e+01 0.0000000e+00 
1.0700745e+01 -8.2395645e+01 0.0000000e+00 
1.1886776e+01 -8.2348007e+01 0.0000000e+00 
1.3079062e+01 -8.2280472e+01 0.0000000e+00 
2.3041139e+00 -8.3595451e+01 0.0000000e+00 
3.2509403e+00 -8.3728050e+01 0.0000000e+00 
4.2203465e+00 -8.3834618e+01 0.0000000e+00 
5.2125607e+00 -8.3915993e+01 0.0000000e+00 
6.2278333e+00 -8.3972893e+01 0.0000000e+00 
7.2665310e+00 -8.4005898e+01 0.0000000e+00 
8.3335829e+00 -8.4017136e+01 0.0000000e+00 
9.4012041e+00 -8.4008682e+01 0.0000000e+00 
1.0471172e+01 -8.3980354e+01 0.0000000e+00 
1.1545198e+01 -8.3932014e+01 0.0000000e+00 
1.2624972e+01 -8.3863449e+01 0.0000000e+00 
2.9834957e+00 -8.5017952e+01 0.0000000e+00 
3.8140740e+00 -8.5152298e+01 0.0000000e+00 
4.6678767e+00 -8.5260460e+01 0.0000000e+00 
5.5452151e+00 -8.5343086e+01 0.0000000e+00 
6.4463615e+00 -8.5400818e+01 0.0000000e+00 
7.3716063e+00 -8.5434250e+01 0.0000000e+00 
8.3262949e+00 -8.5445244e+01 0.0000000e+00 
9.2812319e+00 -8.5436356e+01 0.0000000e+00 
1.0238151e+01 -8.5407455e+01 0.0000000e+00 
1.1198700e+01 -8.5358345e+01 0.0000000e+00 
1.2164513e+01 -8.5288795e+01 0.0000000e+00 
3.6705604e+00 -8.6280182e+01 0.0000000e+00 
4.3838577e+00 -8.6416069e+01 0.0000000e+00 
5.1209044e+00 -8.6525696e+01 0.0000000e+00 
5.8820367e+00 -8.6609634e+01 0.0000000e+00 
6.6675591e+00 -8.6668419e+01 0.0000000e+00 
7.4777546e+00 -8.6702576e+01 0.0000000e+00 
8.3185310e+00 -8.6713448e+01 0.0000000e+00 
9.1594038e+00 -8.6704216e+01 0.0000000e+00 
1.0001945e+01 -8.6674782e+01 0.0000000e+00 
1.0847680e+01 -8.6624962e+01 0.0000000e+00 
1.1698133e+01 -8.6554504e+01 0.0000000e+00 
4.3642683e+00 -8.7380508e+01 0.0000000e+00 
4.9593563e+00 -8.7517723e+01 0.0000000e+00 
5.5786676e+00 -8.7628662e+01 0.0000000e+00 
6.2225242e+00 -8.7713837e+01 0.0000000e+00 
6.8912282e+00 -8.7773720e+01 0.0000000e+00 
7.5850601e+00 -8.7808746e+01 0.0000000e+00 
8.3105087e+00 -8.7819603e+01 0.0000000e+00 
9.0360155e+00 -8.7810143e+01 0.0000000e+00 
9.7629356e+00 -8.7780281e+01 0.0000000e+00 
1.0492610e+01 -8.7729851e+01 0.0000000e+00 
1.1226386e+01 -8.7658585e+01 0.0000000e+00 
5.0636163e+00 -8.8317436e+01 0.0000000e+00 
5.5396872e+00 -8.8455772e+01 0.0000000e+00 
6.0404224e+00 -8.8567863e+01 0.0000000e+00 
6.5661106e+00 -8.8654152e+01 0.0000000e+00 
7.1170273e+00 -8.8715080e+01 0.0000000e+00 
7.6934333e+00 -8.8751015e+01 0.0000000e+00 
8.3023586e+00 -8.8761925e+01 0.0000000e+00 
8.9113503e+00 -8.8752312e+01 0.0000000e+00 
9.5215302e+00 -8.8722122e+01 0.0000000e+00 
1.0134022e+01 -8.8671188e+01 0.0000000e+00 
1.0749956e+01 -8.8599243e+01 0.0000000e+00 
5.7675862e+00 -8.9089653e+01 0.0000000e+00 
6.1239777e+00 -8.9228912e+01 0.0000000e+00 
6.5054431e+00 -8.9341972e+01 0.0000000e+00 
6.9122295e+00 -8.9429260e+01 0.0000000e+00 
7.3445730e+00 -8.9491142e+01 0.0000000e+00 
7.8026986e+00 -8.9527954e+01 0.0000000e+00 
8.2941303e+00 -8.9538933e+01 0.0000000e+00 
8.7856445e+00 -8.9529228e+01 0.0000000e+00 
9.2781305e+00 -8.9498787e+01 0.0000000e+00 
9.7724819e+00 -8.9447449e+01 0.0000000e+00 
1.0269599e+01 -8.9374947e+01 0.0000000e+00 
6.4751372e+00 -8.9696053e+01 0.0000000e+00 
6.7113490e+00 -8.9836029e+01 0.0000000e+00 
6.9730115e+00 -8.9949898e+01 0.0000000e+00 
7.2603245e+00 -9.0038040e+01 0.0000000e+00 
7.5734801e+00 -9.0100792e+01 0.0000000e+00 
7.9126577e+00 -9.0138420e+01 0.0000000e+00 
8.2858372e+00 -9.0149460e+01 0.0000000e+00 
8.6591091e+00 -9.0139687e+01 0.0000000e+00 
9.0331316e+00 -9.0109062e+01 0.0000000e+00 
9.4085712e+00 -9.0057419e+01 0.0000000e+00 
9.7860966e+00 -8.9984482e+01 0.0000000e+00 
7.1852083e+00 -9.0135773e+01 0.0000000e+00 
7.3009119e+00 -9.0276253e+01 0.0000000e+00 
7.4424067e+00 -9.0390747e+01 0.0000000e+00 
7.6098452e+00 -9.0479614e+01 0.0000000e+00 
7.8033695e+00 -9.0543129e+01 0.0000000e+00 
8.0231123e+00 -9.0581520e+01 0.0000000e+00 
8.2774801e+00 -9.0592598e+01 0.0000000e+00 
8.5319376e+00 -9.0582787e+01 0.0000000e+00 
8.7869225e+00 -9.0552025e+01 0.0000000e+00 
9.0428753e+00 -9.0500153e+01 0.0000000e+00 
9.3002348e+00 -9.0426903e+01 0.0000000e+00 
7.8967223e+00 -9.0408173e+01 0.0000000e+00 
7.8917670e+00 -9.0548943e+01 0.0000000e+00 
7.9129066e+00 -9.0663895e+01 0.0000000e+00 
7.9602442e+00 -9.0753342e+01 0.0000000e+00 
8.0338717e+00 -9.0817520e+01 0.0000000e+00 
8.1338711e+00 -9.0856606e+01 0.0000000e+00 
8.2690573e+00 -9.0867706e+01 0.0000000e+00 
8.4043245e+00 -9.0857864e+01 0.0000000e+00 
8.5398893e+00 -9.0827019e+01 0.0000000e+00 
8.6759720e+00 -9.0775009e+01 0.0000000e+00 
8.8127890e+00 -9.0701576e+01 0.0000000e+00 
8.6085920e+00 -9.0512871e+01 0.0000000e+00 
8.4830093e+00 -9.0653709e+01 0.0000000e+00 
8.3837862e+00 -9.0768951e+01 0.0000000e+00 
8.3109770e+00 -9.0858841e+01 0.0000000e+00 
8.2646217e+00 -9.0923576e+01 0.0000000e+00 
8.2447519e+00 -9.0963295e+01 0.0000000e+00 
8.2605724e+00 -9.0974403e+01 0.0000000e+00 
8.2764606e+00 -9.0964546e+01 0.0000000e+00 
8.2924156e+00 -9.0933670e+01 0.0000000e+00 
8.3084383e+00 -9.0881607e+01 0.0000000e+00 
8.3245268e+00 -9.0808098e+01 0.0000000e+00 
9.3197241e+00 -9.0449738e+01 0.0000000e+00 
9.0737295e+00 -9.0590439e+01 0.0000000e+00 
8.8543205e+00 -9.0705780e+01 0.0000000e+00 
8.6615000e+00 -9.0795975e+01 0.0000000e+00 
8.4952602e+00 -9.0861176e+01 0.0000000e+00 
8.3555784e+00 -9.0901466e+01 0.0000000e+00 
8.2520351e+00 -9.0912552e+01 0.0000000e+00 
8.1485434e+00 -9.0902702e+01 0.0000000e+00 
8.0448866e+00 -9.0871841e+01 0.0000000e+00 
7.9408469e+00 -9.0819817e+01 0.0000000e+00 
7.8362079e+00 -9.0746361e+01 0.0000000e+00 
1.0029022e+01 -9.0218903e+01 0.0000000e+00 
9.6630163e+00 -9.0359245e+01 0.0000000e+00 
9.3237820e+00 -9.0474510e+01 0.0000000e+00 
9.0112724e+00 -9.0564873e+01 0.0000000e+00 
8.7254276e+00 -9.0630432e+01 0.0000000e+00 
8.4661760e+00 -9.0671242e+01 0.0000000e+00 
8.2434559e+00 -9.0682297e+01 0.0000000e+00 
8.0207701e+00 -9.0672462e+01 0.0000000e+00 
7.7976861e+00 -9.0641670e+01 0.0000000e+00 
7.5737700e+00 -9.0589767e+01 0.0000000e+00 
7.3485899e+00 -9.0516479e+01 0.0000000e+00 
1.0735389e+01 -8.9820747e+01 0.0000000e+00 
1.0249957e+01 -8.9960510e+01 0.0000000e+00 
9.7914438e+00 -9.0075531e+01 0.0000000e+00 
9.3597507e+00 -9.0165924e+01 0.0000000e+00 
8.9547682e+00 -9.0231750e+01 0.0000000e+00 
8.5763750e+00 -9.0273010e+01 0.0000000e+00 
8.2348490e+00 -9.0284019e+01 0.0000000e+00 
7.8933392e+00 -9.0274223e+01 0.0000000e+00 
7.5511985e+00 -9.0243553e+01 0.0000000e+00 
7.2077775e+00 -9.0191856e+01 0.0000000e+00 
6.8624272e+00 -9.0118851e+01 0.0000000e+00 
1.1437727e+01 -8.9255913e+01 0.0000000e+00 
1.0833641e+01 -8.9394882e+01 0.0000000e+00 
1.0256580e+01 -8.9509476e+01 0.0000000e+00 
9.7063951e+00 -8.9599762e+01 0.0000000e+00 
9.1829262e+00 -8.9665756e+01 0.0000000e+00 
8.6860027e+00 -8.9707405e+01 0.0000000e+00 
8.2262259e+00 -8.9718361e+01 0.0000000e+00 
7.7664495e+00 -8.9708618e+01 0.0000000e+00 
7.3058085e+00 -8.9678123e+01 0.0000000e+00 
6.8434381e+00 -8.9626717e+01 0.0000000e+00 
6.3784747e+00 -8.9554123e+01 0.0000000e+00 