# vtk DataFile Version 4.0
vtk output
ASCII
DATASET UNSTRUCTURED_GRID
POINTS 420 float
-8.5095797e+00 -1.5029973e+02 0.0000000e+00 
-5.6576090e+00 -1.2028924e+02 0.0000000e+00 
-2.8242691e+00 -9.0222855e+01 0.0000000e+00 
0.0000000e+00 -6.0000000e+01 0.0000000e+00 
3.0244806e+00 -3.0317091e+01 0.0000000e+00 
5.8953872e+00 -4.8259318e-01 0.0000000e+00 
3.3181309e+01 -1.5428279e+02 0.0000000e+00 
3.6036381e+01 -1.2428539e+02 0.0000000e+00 
3.8883091e+01 -9.4277023e+01 0.0000000e+00 
4.1812717e+01 -6.4327293e+01 0.0000000e+00 
4.4728977e+01 -3.4347481e+01 0.0000000e+00 
4.7577488e+01 -4.4054885e+00 0.0000000e+00 
7.4941986e+01 -1.5829425e+02 0.0000000e+00 
7.7800606e+01 -1.2831953e+02 0.0000000e+00 
8.0666000e+01 -9.8351448e+01 0.0000000e+00 
8.3527252e+01 -6.8374321e+01 0.0000000e+00 
8.6386177e+01 -3.8384289e+01 0.0000000e+00 
8.9229683e+01 -8.3818493e+00 0.0000000e+00 
1.1676575e+02 -1.6229820e+02 0.0000000e+00 
1.1959664e+02 -1.3233209e+02 0.0000000e+00 
1.2242474e+02 -1.0235528e+02 0.0000000e+00 
1.2524899e+02 -7.2368607e+01 0.0000000e+00 
1.2806786e+02 -4.2369690e+01 0.0000000e+00 
1.3088126e+02 -1.2358763e+01 0.0000000e+00 
1.5862080e+02 -1.6625487e+02 0.0000000e+00 
1.6140747e+02 -1.3629056e+02 0.0000000e+00 
1.6419511e+02 -1.0631274e+02 0.0000000e+00 
1.6698164e+02 -7.6322128e+01 0.0000000e+00 
1.6976640e+02 -4.6319668e+01 0.0000000e+00 
1.7254994e+02 -1.6306532e+01 0.0000000e+00 
2.0049644e+02 -1.7015605e+02 0.0000000e+00 
2.0323941e+02 -1.4019624e+02 0.0000000e+00 
2.0598431e+02 -1.1022157e+02 0.0000000e+00 
2.0873103e+02 -8.0232796e+01 0.0000000e+00 
2.1147972e+02 -5.0231514e+01 0.0000000e+00 
2.1423112e+02 -2.0219675e+01 0.0000000e+00 
2.4239606e+02 -1.7400357e+02 0.0000000e+00 
2.4509409e+02 -1.4404898e+02 0.0000000e+00 
2.4779463e+02 -1.1407914e+02 0.0000000e+00 
2.5049886e+02 -8.4094902e+01 0.0000000e+00 
2.5320781e+02 -5.4097721e+01 0.0000000e+00 
2.5592261e+02 -2.4089474e+01 0.0000000e+00 
2.8432257e+02 -1.7779443e+02 0.0000000e+00 
2.8697244e+02 -1.4784555e+02 0.0000000e+00 
2.8962595e+02 -1.1788120e+02 0.0000000e+00 
2.9228461e+02 -8.7902466e+01 0.0000000e+00 
2.9494992e+02 -5.7910568e+01 0.0000000e+00 
2.9762323e+02 -2.7907040e+01 0.0000000e+00 
3.2627664e+02 -1.8152321e+02 0.0000000e+00 
3.2887469e+02 -1.5158023e+02 0.0000000e+00 
3.3147772e+02 -1.2162193e+02 0.0000000e+00 
3.3408731e+02 -9.1649193e+01 0.0000000e+00 
3.3670496e+02 -6.1662949e+01 0.0000000e+00 
3.3933197e+02 -3.1664356e+01 0.0000000e+00 
3.6825595e+02 -1.8518475e+02 0.0000000e+00 
3.7080008e+02 -1.5524712e+02 0.0000000e+00 
3.7334979e+02 -1.2529497e+02 0.0000000e+00 
3.7590656e+02 -9.5328598e+01 0.0000000e+00 
3.7847223e+02 -6.5348175e+01 0.0000000e+00 
3.8104813e+02 -3.5354340e+01 0.0000000e+00 
4.1025629e+02 -1.8877681e+02 0.0000000e+00 
4.1274615e+02 -1.5884308e+02 0.0000000e+00 
4.1524176e+02 -1.2889485e+02 0.0000000e+00 
4.1774286e+02 -9.8934265e+01 0.0000000e+00 
4.2025214e+02 -6.8959976e+01 0.0000000e+00 
4.2277182e+02 -3.8970688e+01 0.0000000e+00 
4.5227612e+02 -1.9229742e+02 0.0000000e+00 
4.5470862e+02 -1.6236720e+02 0.0000000e+00 
4.5714966e+02 -1.3242044e+02 0.0000000e+00 
4.5959772e+02 -1.0246070e+02 0.0000000e+00 
4.6204889e+02 -7.2493423e+01 0.0000000e+00 
4.6450476e+02 -4.2507885e+01 0.0000000e+00 
4.9431784e+02 -1.9573863e+02 0.0000000e+00 
4.9668509e+02 -1.6581314e+02 0.0000000e+00 
4.9906570e+02 -1.3587172e+02 0.0000000e+00 
5.0147186e+02 -1.0592232e+02 0.0000000e+00 
5.0387683e+02 -7.5947556e+01 0.0000000e+00 
5.0624622e+02 -4.5951893e+01 0.0000000e+00 
5.3638074e+02 -1.9908728e+02 0.0000000e+00 
5.3867413e+02 -1.6916566e+02 0.0000000e+00 
5.4098059e+02 -1.3922650e+02 0.0000000e+00 
5.4329413e+02 -1.0926369e+02 0.0000000e+00 
5.7845966e+02 -2.0233282e+02 0.0000000e+00 
5.8067395e+02 -1.7241327e+02 0.0000000e+00 
5.8289935e+02 -1.4247247e+02 0.0000000e+00 
5.8513574e+02 -1.1251070e+02 0.0000000e+00 
6.2055255e+02 -2.0547206e+02 0.0000000e+00 
6.2268683e+02 -1.7555521e+02 0.0000000e+00 
6.2483331e+02 -1.4561740e+02 0.0000000e+00 
6.2699280e+02 -1.1565944e+02 0.0000000e+00 
6.6266205e+02 -2.0850520e+02 0.0000000e+00 
6.6471564e+02 -1.7859212e+02 0.0000000e+00 
6.6678186e+02 -1.4865782e+02 0.0000000e+00 
6.6886163e+02 -1.1870302e+02 0.0000000e+00 
7.0479059e+02 -2.1143018e+02 0.0000000e+00 
7.0676068e+02 -1.8152090e+02 0.0000000e+00 
7.0874365e+02 -1.5158949e+02 0.0000000e+00 
7.1074048e+02 -1.2163686e+02 0.0000000e+00 
7.4694006e+02 -2.1424240e+02 0.0000000e+00 
7.4882227e+02 -1.8433694e+02 0.0000000e+00 
7.5071783e+02 -1.5440778e+02 0.0000000e+00 
7.5262787e+02 -1.2445628e+02 0.0000000e+00 
7.8911334e+02 -2.1693497e+02 0.0000000e+00 
7.9090094e+02 -1.8703400e+02 0.0000000e+00 
7.9270374e+02 -1.5710715e+02 0.0000000e+00 
7.9452271e+02 -1.2715630e+02 0.0000000e+00 
8.3131329e+02 -2.1949780e+02 0.0000000e+00 
8.3299890e+02 -1.8960265e+02 0.0000000e+00 
8.3470142e+02 -1.5968074e+02 0.0000000e+00 
8.3642371e+02 -1.2973151e+02 0.0000000e+00 
8.7353833e+02 -2.2192252e+02 0.0000000e+00 
8.7511926e+02 -1.9203273e+02 0.0000000e+00 
8.7671545e+02 -1.6211783e+02 0.0000000e+00 
8.7833063e+02 -1.3217599e+02 0.0000000e+00 
9.1578241e+02 -2.2420964e+02 0.0000000e+00 
9.1726202e+02 -1.9432309e+02 0.0000000e+00 
9.1875330e+02 -1.6440910e+02 0.0000000e+00 
9.2024188e+02 -1.3446043e+02 0.0000000e+00 
9.2179626e+02 -1.0450833e+02 0.0000000e+00 
9.2341656e+02 -7.4547020e+01 0.0000000e+00 
9.5804517e+02 -2.2636540e+02 0.0000000e+00 
9.5942657e+02 -1.9648306e+02 0.0000000e+00 
9.6082324e+02 -1.6657446e+02 0.0000000e+00 
9.6224707e+02 -1.3665161e+02 0.0000000e+00 
9.6369989e+02 -1.0671436e+02 0.0000000e+00 
9.6518091e+02 -7.6749207e+01 0.0000000e+00 
1.0003316e+03 -2.2839088e+02 0.0000000e+00 
1.0016130e+03 -1.9851468e+02 0.0000000e+00 
1.0029146e+03 -1.6861597e+02 0.0000000e+00 
1.0042384e+03 -1.3869627e+02 0.0000000e+00 
1.0055843e+03 -1.0875465e+02 0.0000000e+00 
1.0069529e+03 -7.8789246e+01 0.0000000e+00 
1.0426411e+03 -2.3027757e+02 0.0000000e+00 
1.0438157e+03 -2.0040579e+02 0.0000000e+00 
1.0450106e+03 -1.7050948e+02 0.0000000e+00 
1.0462268e+03 -1.4058965e+02 0.0000000e+00 
1.0474645e+03 -1.1064656e+02 0.0000000e+00 
1.0487246e+03 -8.0680084e+01 0.0000000e+00 
1.0849670e+03 -2.3201448e+02 0.0000000e+00 
1.0860288e+03 -2.0214508e+02 0.0000000e+00 
1.0871123e+03 -1.7225011e+02 0.0000000e+00 
1.0882177e+03 -1.4233058e+02 0.0000000e+00 
1.0893452e+03 -1.1238713e+02 0.0000000e+00 
1.0904955e+03 -8.2420135e+01 0.0000000e+00 
1.1273041e+03 -2.3359544e+02 0.0000000e+00 
1.1282510e+03 -2.0372804e+02 0.0000000e+00 
1.1292203e+03 -1.7383463e+02 0.0000000e+00 
1.1302125e+03 -1.4391600e+02 0.0000000e+00 
1.1312278e+03 -1.1397289e+02 0.0000000e+00 
1.1322665e+03 -8.4005898e+01 0.0000000e+00 
1.1696501e+03 -2.3501794e+02 0.0000000e+00 
1.1704807e+03 -2.0515230e+02 0.0000000e+00 
1.1713346e+03 -1.7526047e+02 0.0000000e+00 
1.1722119e+03 -1.4534308e+02 0.0000000e+00 
1.1731130e+03 -1.1540082e+02 0.0000000e+00 
1.1740383e+03 -8.5434250e+01 0.0000000e+00 
1.2120039e+03 -2.3628018e+02 0.0000000e+00 
1.2127172e+03 -2.0641606e+02 0.0000000e+00 
1.2134542e+03 -1.7652570e+02 0.0000000e+00 
1.2142153e+03 -1.4660963e+02 0.0000000e+00 
1.2150009e+03 -1.1666842e+02 0.0000000e+00 
1.2158110e+03 -8.6702576e+01 0.0000000e+00 
1.2543643e+03 -2.3738051e+02 0.0000000e+00 
1.2549594e+03 -2.0751772e+02 0.0000000e+00 
1.2555786e+03 -1.7762866e+02 0.0000000e+00 
1.2562225e+03 -1.4771384e+02 0.0000000e+00 
1.2568912e+03 -1.1777372e+02 0.0000000e+00 
1.2575851e+03 -8.7808746e+01 0.0000000e+00 
1.2967302e+03 -2.3831744e+02 0.0000000e+00 
1.2972063e+03 -2.0845578e+02 0.0000000e+00 
1.2977070e+03 -1.7856786e+02 0.0000000e+00 
1.2982328e+03 -1.4865416e+02 0.0000000e+00 
1.2987837e+03 -1.1871508e+02 0.0000000e+00 
1.2993601e+03 -8.8751015e+01 0.0000000e+00 
1.3391010e+03 -2.3908965e+02 0.0000000e+00 
1.3394573e+03 -2.0922891e+02 0.0000000e+00 
1.3398387e+03 -1.7934198e+02 0.0000000e+00 
1.3402456e+03 -1.4942926e+02 0.0000000e+00 
1.3406779e+03 -1.1949114e+02 0.0000000e+00 
1.3411360e+03 -8.9527954e+01 0.0000000e+00 
1.3814751e+03 -2.3969606e+02 0.0000000e+00 
1.3817113e+03 -2.0983603e+02 0.0000000e+00 
1.3819730e+03 -1.7994989e+02 0.0000000e+00 
1.3822604e+03 -1.5003804e+02 0.0000000e+00 
1.3825735e+03 -1.2010079e+02 0.0000000e+00 
1.3829126e+03 -9.0138420e+01 0.0000000e+00 
1.4238519e+03 -2.4013577e+02 0.0000000e+00 
1.4239675e+03 -2.1027625e+02 0.0000000e+00 
1.4241091e+03 -1.8039075e+02 0.0000000e+00 
1.4242765e+03 -1.5047961e+02 0.0000000e+00 
1.4244701e+03 -1.2054313e+02 0.0000000e+00 
1.4246898e+03 -9.0581520e+01 0.0000000e+00 
1.4662301e+03 -2.4040817e+02 0.0000000e+00 
1.4662251e+03 -2.1054893e+02 0.0000000e+00 
1.4662462e+03 -1.8066389e+02 0.0000000e+00 
1.4662936e+03 -1.5075334e+02 0.0000000e+00 
1.4663672e+03 -1.2081752e+02 0.0000000e+00 
1.4664672e+03 -9.0856606e+01 0.0000000e+00 
1.5086086e+03 -2.4051288e+02 0.0000000e+00 
1.5084830e+03 -2.1065372e+02 0.0000000e+00 
1.5083838e+03 -1.8076895e+02 0.0000000e+00 
1.5083110e+03 -1.5085884e+02 0.0000000e+00 
1.5082646e+03 -1.2092358e+02 0.0000000e+00 
1.5082448e+03 -9.0963295e+01 0.0000000e+00 
1.5509865e+03 -2.4044974e+02 0.0000000e+00 
1.5507404e+03 -2.1059044e+02 0.0000000e+00 
1.5505210e+03 -1.8070578e+02 0.0000000e+00 
1.5503281e+03 -1.5079597e+02 0.0000000e+00 
1.5501620e+03 -1.2086118e+02 0.0000000e+00 
1.5500222e+03 -9.0901466e+01 0.0000000e+00 
1.5933623e+03 -2.4021890e+02 0.0000000e+00 
1.5929963e+03 -2.1035924e+02 0.0000000e+00 
1.5926571e+03 -1.8047452e+02 0.0000000e+00 
1.5923446e+03 -1.5056488e+02 0.0000000e+00 
1.5920587e+03 -1.2063043e+02 0.0000000e+00 
1.5917996e+03 -9.0671242e+01 0.0000000e+00 
1.6357354e+03 -2.3982076e+02 0.0000000e+00 
1.6352500e+03 -2.0996051e+02 0.0000000e+00 
1.6347915e+03 -1.8007553e+02 0.0000000e+00 
1.6343597e+03 -1.5016592e+02 0.0000000e+00 
1.6339547e+03 -1.2023175e+02 0.0000000e+00 
1.6335764e+03 -9.0273010e+01 0.0000000e+00 
1.6781044e+03 -2.3925592e+02 0.0000000e+00 
1.6775004e+03 -2.0939488e+02 0.0000000e+00 
1.6769232e+03 -1.7950948e+02 0.0000000e+00 
[...]
POINT_DATA 420
FIELD FieldData 5
DISPLACEMENT 3 420  float
-8.5095797e+00 -2.9972678e-01 0.0000000e+00 
-5.6576090e+00 -2.8923646e-01 0.0000000e+00 
-2.8242691e+00 -2.2285794e-01 0.0000000e+00 
0.0000000e+00 0.0000000e+00 0.0000000e+00 
3.0244806e+00 -3.1709135e-01 0.0000000e+00 
5.8953872e+00 -4.8259318e-01 0.0000000e+00 
-8.4853573e+00 -4.2827849e+00 0.0000000e+00 
-5.6302872e+00 -4.2853866e+00 0.0000000e+00 
-2.7835770e+00 -4.2770205e+00 0.0000000e+00 
1.4605136e-01 -4.3272943e+00 0.0000000e+00 
3.0623119e+00 -4.3474817e+00 0.0000000e+00 
5.9108224e+00 -4.4054885e+00 0.0000000e+00 
-8.3913479e+00 -8.2942524e+00 0.0000000e+00 
-5.5327296e+00 -8.3195372e+00 0.0000000e+00 
-2.6673346e+00 -8.3514519e+00 0.0000000e+00 
1.9391967e-01 -8.3743191e+00 0.0000000e+00 
3.0528414e+00 -8.3842907e+00 0.0000000e+00 
5.8963518e+00 -8.3818493e+00 0.0000000e+00 
-8.2342520e+00 -1.2298200e+01 0.0000000e+00 
-5.4033566e+00 -1.2332090e+01 0.0000000e+00 
-2.5752628e+00 -1.2355274e+01 0.0000000e+00 
2.4898206e-01 -1.2368608e+01 0.0000000e+00 
3.0678561e+00 -1.2369692e+01 0.0000000e+00 
5.8812633e+00 -1.2358763e+01 0.0000000e+00 
-8.0458660e+00 -1.6254862e+01 0.0000000e+00 
-5.2592001e+00 -1.6290556e+01 0.0000000e+00 
-2.4715490e+00 -1.6312748e+01 0.0000000e+00 
3.1497809e-01 -1.6322126e+01 0.0000000e+00 
3.0997298e+00 -1.6319670e+01 0.0000000e+00 
5.8832684e+00 -1.6306532e+01 0.0000000e+00 
-7.8368926e+00 -2.0156057e+01 0.0000000e+00 
-5.0939231e+00 -2.0196251e+01 0.0000000e+00 
-2.3490245e+00 -2.0221569e+01 0.0000000e+00 
3.9770299e-01 -2.0232798e+01 0.0000000e+00 
3.1463809e+00 -2.0231514e+01 0.0000000e+00 
5.8977976e+00 -2.0219675e+01 0.0000000e+00 
-7.6039367e+00 -2.4003576e+01 0.0000000e+00 
-4.9059181e+00 -2.4048981e+01 0.0000000e+00 
-2.2053616e+00 -2.4079138e+01 0.0000000e+00 
4.9886149e-01 -2.4094900e+01 0.0000000e+00 
3.2078128e+00 -2.4097721e+01 0.0000000e+00 
5.9226007e+00 -2.4089474e+01 0.0000000e+00 
-7.3440933e+00 -2.7794430e+01 0.0000000e+00 
-4.6942282e+00 -2.7845554e+01 0.0000000e+00 
-2.0407307e+00 -2.7881205e+01 0.0000000e+00 
6.1794847e-01 -2.7902462e+01 0.0000000e+00 
3.2832584e+00 -2.7910570e+01 0.0000000e+00 
5.9565549e+00 -2.7907040e+01 0.0000000e+00 
-7.0566831e+00 -3.1523203e+01 0.0000000e+00 
-4.4586482e+00 -3.1580227e+01 0.0000000e+00 
-1.8556139e+00 -3.1621931e+01 0.0000000e+00 
7.5398630e-01 -3.1649191e+01 0.0000000e+00 
3.3716156e+00 -3.1662949e+01 0.0000000e+00 
5.9986296e+00 -3.1664356e+01 0.0000000e+00 
-6.7440519e+00 -3.5184746e+01 0.0000000e+00 
-4.1999068e+00 -3.5247120e+01 0.0000000e+00 
-1.6502122e+00 -3.5294968e+01 0.0000000e+00 
9.0654868e-01 -3.5328594e+01 0.0000000e+00 
3.4722190e+00 -3.5348179e+01 0.0000000e+00 
6.0481191e+00 -3.5354340e+01 0.0000000e+00 
-6.4103918e+00 -3.8776814e+01 0.0000000e+00 
-3.9205103e+00 -3.8843071e+01 0.0000000e+00 
-1.4249119e+00 -3.8894852e+01 0.0000000e+00 
1.0761962e+00 -3.8934261e+01 0.0000000e+00 
3.5854557e+00 -3.8959976e+01 0.0000000e+00 
6.1051669e+00 -3.8970688e+01 0.0000000e+00 
-6.0571990e+00 -4.2297417e+01 0.0000000e+00 
-3.6247299e+00 -4.2367207e+01 0.0000000e+00 
-1.1836721e+00 -4.2420448e+01 0.0000000e+00 
1.2643979e+00 -4.2460697e+01 0.0000000e+00 
3.7155452e+00 -4.2493420e+01 0.0000000e+00 
6.1714201e+00 -4.2507885e+01 0.0000000e+00 
-5.6821656e+00 -4.5738636e+01 0.0000000e+00 
-3.3149004e+00 -4.5813137e+01 0.0000000e+00 
-9.3428934e-01 -4.5871712e+01 0.0000000e+00 
1.4718760e+00 -4.5922318e+01 0.0000000e+00 
3.8768270e+00 -4.5947556e+01 0.0000000e+00 
6.2462058e+00 -4.5951893e+01 0.0000000e+00 
-5.2859325e+00 -4.9087280e+01 0.0000000e+00 
-2.9925101e+00 -4.9165668e+01 0.0000000e+00 
-6.8608493e-01 -4.9226498e+01 0.0000000e+00 
1.6274867e+00 -4.9263683e+01 0.0000000e+00 
-4.8736572e+00 -5.2332817e+01 0.0000000e+00 
-2.6593823e+00 -5.2413261e+01 0.0000000e+00 
-4.3398029e-01 -5.2472466e+01 0.0000000e+00 
1.8024222e+00 -5.2510704e+01 0.0000000e+00 
-4.4474254e+00 -5.5472065e+01 0.0000000e+00 
-2.3131688e+00 -5.5555210e+01 0.0000000e+00 
-1.6668282e-01 -5.5617405e+01 0.0000000e+00 
1.9928179e+00 -5.5659443e+01 0.0000000e+00 
-4.0046349e+00 -5.8505203e+01 0.0000000e+00 
-1.9510067e+00 -5.8592121e+01 0.0000000e+00 
1.1519881e-01 -5.8657822e+01 0.0000000e+00 
2.1949673e+00 -5.8703022e+01 0.0000000e+00 
-3.5427310e+00 -6.1430183e+01 0.0000000e+00 
-1.5726229e+00 -6.1520897e+01 0.0000000e+00 
4.1032034e-01 -6.1589489e+01 0.0000000e+00 
2.4071169e+00 -6.1636856e+01 0.0000000e+00 
-3.0599377e+00 -6.4242401e+01 0.0000000e+00 
-1.1777574e+00 -6.4336952e+01 0.0000000e+00 
7.1782631e-01 -6.4407776e+01 0.0000000e+00 
2.6278656e+00 -6.4456284e+01 0.0000000e+00 
-2.5533538e+00 -6.6934959e+01 0.0000000e+00 
-7.6572937e-01 -6.7033997e+01 0.0000000e+00 
1.0370409e+00 -6.7107147e+01 0.0000000e+00 
2.8560219e+00 -6.7156303e+01 0.0000000e+00 
-2.0200200e+00 -6.9497795e+01 0.0000000e+00 
-3.3445692e-01 -6.9602646e+01 0.0000000e+00 
1.3681093e+00 -6.9680740e+01 0.0000000e+00 
3.0903633e+00 -6.9731499e+01 0.0000000e+00 
-1.4616967e+00 -7.1922516e+01 0.0000000e+00 
1.1925475e-01 -7.2032722e+01 0.0000000e+00 
1.7154626e+00 -7.2117821e+01 0.0000000e+00 
3.3306293e+00 -7.2175995e+01 0.0000000e+00 
-8.8423425e-01 -7.4209648e+01 0.0000000e+00 
5.9535885e-01 -7.4323090e+01 0.0000000e+00 
2.0866146e+00 -7.4409103e+01 0.0000000e+00 
3.5752275e+00 -7.4460434e+01 0.0000000e+00 
5.1296215e+00 -7.4508331e+01 0.0000000e+00 
6.7499223e+00 -7.4547020e+01 0.0000000e+00 
-2.8814042e-01 -7.6365410e+01 0.0000000e+00 
1.0932345e+00 -7.6483063e+01 0.0000000e+00 
2.4898818e+00 -7.6574463e+01 0.0000000e+00 
3.9137199e+00 -7.6651611e+01 0.0000000e+00 
5.3665729e+00 -7.6714355e+01 0.0000000e+00 
6.8475747e+00 -7.6749207e+01 0.0000000e+00 
3.3159411e-01 -7.8390877e+01 0.0000000e+00 
1.6130010e+00 -7.8514679e+01 0.0000000e+00 
2.9145579e+00 -7.8615959e+01 0.0000000e+00 
4.2383885e+00 -7.8696266e+01 0.0000000e+00 
5.5842705e+00 -7.8754646e+01 0.0000000e+00 
6.9528661e+00 -7.8789246e+01 0.0000000e+00 
9.7444624e-01 -8.0277573e+01 0.0000000e+00 
2.1490080e+00 -8.0405785e+01 0.0000000e+00 
3.3439867e+00 -8.0509468e+01 0.0000000e+00 
4.5600948e+00 -8.0589653e+01 0.0000000e+00 
5.7978554e+00 -8.0646561e+01 0.0000000e+00 
7.0579739e+00 -8.0680084e+01 0.0000000e+00 
1.6336882e+00 -8.2014488e+01 0.0000000e+00 
2.6955192e+00 -8.2145088e+01 0.0000000e+00 
3.7789783e+00 -8.2250114e+01 0.0000000e+00 
4.8843102e+00 -8.2330582e+01 0.0000000e+00 
6.0118666e+00 -8.2387131e+01 0.0000000e+00 
7.1621957e+00 -8.2420135e+01 0.0000000e+00 
2.3041139e+00 -8.3595451e+01 0.0000000e+00 
3.2509403e+00 -8.3728050e+01 0.0000000e+00 
4.2203465e+00 -8.3834618e+01 0.0000000e+00 
5.2125607e+00 -8.3915993e+01 0.0000000e+00 
6.2278333e+00 -8.3972893e+01 0.0000000e+00 
7.2665310e+00 -8.4005898e+01 0.0000000e+00 
2.9834957e+00 -8.5017952e+01 0.0000000e+00 
3.8140740e+00 -8.5152298e+01 0.0000000e+00 
4.6678767e+00 -8.5260460e+01 0.0000000e+00 
5.5452151e+00 -8.5343086e+01 0.0000000e+00 
6.4463615e+00 -8.5400818e+01 0.0000000e+00 
7.3716063e+00 -8.5434250e+01 0.0000000e+00 
3.6705604e+00 -8.6280182e+01 0.0000000e+00 
4.3838577e+00 -8.6416069e+01 0.0000000e+00 
5.1209044e+00 -8.6525696e+01 0.0000000e+00 
5.8820367e+00 -8.6609634e+01 0.0000000e+00 
6.6675591e+00 -8.6668419e+01 0.0000000e+00 
7.4777546e+00 -8.6702576e+01 0.0000000e+00 
4.3642683e+00 -8.7380508e+01 0.0000000e+00 
4.9593563e+00 -8.7517723e+01 0.0000000e+00 
5.5786676e+00 -8.7628662e+01 0.0000000e+00 
6.2225242e+00 -8.7713837e+01 0.0000000e+00 
6.8912282e+00 -8.7773720e+01 0.0000000e+00 
7.5850601e+00 -8.7808746e+01 0.0000000e+00 
5.0636163e+00 -8.8317436e+01 0.0000000e+00 
5.5396872e+00 -8.8455772e+01 0.0000000e+00 
6.0404224e+00 -8.8567863e+01 0.0000000e+00 
6.5661106e+00 -8.8654152e+01 0.0000000e+00 
7.1170273e+00 -8.8715080e+01 0.0000000e+00 
7.6934333e+00 -8.8751015e+01 0.0000000e+00 
5.7675862e+00 -8.9089653e+01 0.0000000e+00 
6.1239777e+00 -8.9228912e+01 0.0000000e+00 
6.5054431e+00 -8.9341972e+01 0.0000000e+00 
6.9122295e+00 -8.9429260e+01 0.0000000e+00 
7.3445730e+00 -8.9491142e+01 0.0000000e+00 
7.8026986e+00 -8.9527954e+01 0.0000000e+00 
6.4751372e+00 -8.9696053e+01 0.0000000e+00 
6.7113490e+00 -8.9836029e+01 0.0000000e+00 
6.9730115e+00 -8.9949898e+01 0.0000000e+00 
7.2603245e+00 -9.0038040e+01 0.0000000e+00 
7.5734801e+00 -9.0100792e+01 0.0000000e+00 
7.9126577e+00 -9.0138420e+01 0.0000000e+00 
7.1852083e+00 -9.0135773e+01 0.0000000e+00 
7.3009119e+00 -9.0276253e+01 0.0000000e+00 
7.4424067e+00 -9.0390747e+01 0.0000000e+00 
7.6098452e+00 -9.0479614e+01 0.0000000e+00 
7.8033695e+00 -9.0543129e+01 0.0000000e+00 
8.0231123e+00 -9.0581520e+01 0.0000000e+00 
7.8967223e+00 -9.0408173e+01 0.0000000e+00 
7.8917670e+00 -9.0548943e+01 0.0000000e+00 
7.9129066e+00 -9.0663895e+01 0.0000000e+00 
7.9602442e+00 -9.0753342e+01 0.0000000e+00 
8.0338717e+00 -9.0817520e+01 0.0000000e+00 
8.1338711e+00 -9.0856606e+01 0.0000000e+00 
8.6085920e+00 -9.0512871e+01 0.0000000e+00 
8.4830093e+00 -9.0653709e+01 0.0000000e+00 
8.3837862e+00 -9.0768951e+01 0.0000000e+00 
8.3109770e+00 -9.0858841e+01 0.0000000e+00 
8.2646217e+00 -9.0923576e+01 0.0000000e+00 
8.2447519e+00 -9.0963295e+01 0.0000000e+00 
9.3197241e+00 -9.0449738e+01 0.0000000e+00 
9.0737295e+00 -9.0590439e+01 0.0000000e+00 
8.8543205e+00 -9.0705780e+01 0.0000000e+00 
8.6615000e+00 -9.0795975e+01 0.0000000e+00 
8.4952602e+00 -9.0861176e+01 0.0000000e+00 
8.3555784e+00 -9.0901466e+01 0.0000000e+00 
1.0029022e+01 -9.0218903e+01 0.0000000e+00 
9.6630163e+00 -9.0359245e+01 0.0000000e+00 
9.3237820e+00 -9.0474510e+01 0.0000000e+00 
9.0112724e+00 -9.0564873e+01 0.0000000e+00 
8.7254276e+00 -9.0630432e+01 0.0000000e+00 
8.4661760e+00 -9.0671242e+01 0.0000000e+00 
1.0735389e+01 -8.9820747e+01 0.0000000e+00 
1.0249957e+01 -8.9960510e+01 0.0000000e+00 
9.7914438e+00 -9.0075531e+01 0.0000000e+00 
9.3597507e+00 -9.0165924e+01 0.0000000e+00 
8.9547682e+00 -9.0231750e+01 0.0000000e+00 
8.5763750e+00 -9.0273010e+01 0.0000000e+00 
1.1437727e+01 -8.9255913e+01 0.0000000e+00 
1.0833641e+01 -8.9394882e+01 0.0000000e+00 
1.0256580e+01 -8.9509476e+01 0.0000000e+00 
9.7063951e+00 -8.9599762e+01 0.0000000e+00 
9.1829262e+00 -8.9665756e+01 0.0000000e+00 
8.6860027e+00 -8.9707405e+01 0.0000000e+00 
1.2134938e+01 -8.8525299e+01 0.0000000e+00 
1.1413156e+01 -8.8663261e+01 0.0000000e+00 
1.0718464e+01 -8.8777245e+01 0.0000000e+00 
1.0050664e+01 -8.8867287e+01 0.0000000e+00 
9.4095469e+00 -8.8933350e+01 0.0000000e+00 
8.7948904e+00 -8.8975349e+01 0.0000000e+00 
1.2825925e+01 -8.7630066e+01 0.0000000e+00 
1.1987589e+01 -8.7766792e+01 0.0000000e+00 
1.1176369e+01 -8.7879997e+01 0.0000000e+00 
1.0392016e+01 -8.7969658e+01 0.0000000e+00 
9.6342726e+00 -8.8035698e+01 0.0000000e+00 
8.9028664e+00 -8.8077972e+01 0.0000000e+00 
1.3509591e+01 -8.6571617e+01 0.0000000e+00 
1.2556029e+01 -8.6706902e+01 0.0000000e+00 
1.1629568e+01 -8.6819153e+01 0.0000000e+00 
1.0729912e+01 -8.6908295e+01 0.0000000e+00 
9.8567495e+00 -8.6974213e+01 0.0000000e+00 
9.0097599e+00 -8.7016708e+01 0.0000000e+00 
1.4184839e+01 -8.5351639e+01 0.0000000e+00 
1.3117564e+01 -8.5485260e+01 0.0000000e+00 
1.2077336e+01 -8.5596375e+01 0.0000000e+00 
1.1063808e+01 -8.5684860e+01 0.0000000e+00 
1.0076621e+01 -8.5750557e+01 0.0000000e+00 
9.1154013e+00 -8.5793228e+01 0.0000000e+00 
1.4850574e+01 -8.3972046e+01 0.0000000e+00 
1.3671283e+01 -8.4103790e+01 0.0000000e+00 
1.2518947e+01 -8.4213593e+01 0.0000000e+00 
1.1393166e+01 -8.4301285e+01 0.0000000e+00 
1.0293530e+01 -8.4366669e+01 0.0000000e+00 
9.2196198e+00 -8.4409447e+01 0.0000000e+00 
1.5505695e+01 -8.2435028e+01 0.0000000e+00 
1.4216274e+01 -8.2564682e+01 0.0000000e+00 
1.2953672e+01 -8.2672989e+01 0.0000000e+00 
1.1717442e+01 -8.2759766e+01 0.0000000e+00 
1.0507122e+01 -8.2824730e+01 0.0000000e+00 
9.3222437e+00 -8.2867569e+01 0.0000000e+00 
1.6149111e+01 -8.0743042e+01 0.0000000e+00 
1.4751626e+01 -8.0870377e+01 0.0000000e+00 
1.3380787e+01 -8.0977020e+01 0.0000000e+00 
1.2036095e+01 -8.1062729e+01 0.0000000e+00 
1.0717040e+01 -8.1127182e+01 0.0000000e+00 
9.4231033e+00 -8.1170021e+01 0.0000000e+00 
1.6779720e+01 -7.8898773e+01 0.0000000e+00 
1.5276427e+01 -7.9023575e+01 0.0000000e+00 
1.3799565e+01 -7.9128380e+01 0.0000000e+00 
1.2348585e+01 -7.9212883e+01 0.0000000e+00 
1.0922929e+01 -7.9276733e+01 0.0000000e+00 
9.5220261e+00 -7.9319511e+01 0.0000000e+00 
1.7396429e+01 -7.6905182e+01 0.0000000e+00 
1.5789766e+01 -7.7027237e+01 0.0000000e+00 
1.4209279e+01 -7.7130028e+01 0.0000000e+00 
1.2654371e+01 -7.7213188e+01 0.0000000e+00 
1.1124433e+01 -7.7276329e+01 0.0000000e+00 
9.6188421e+00 -7.7318993e+01 0.0000000e+00 
1.7998140e+01 -7.4765480e+01 0.0000000e+00 
1.6290731e+01 -7.4884583e+01 0.0000000e+00 
1.4609204e+01 -7.4985168e+01 0.0000000e+00 
1.2952910e+01 -7.5066856e+01 0.0000000e+00 
1.1321193e+01 -7.5129196e+01 0.0000000e+00 
9.7133799e+00 -7.5171684e+01 0.0000000e+00 
1.8583761e+01 -7.2483154e+01 0.0000000e+00 
1.6778414e+01 -7.2599068e+01 0.0000000e+00 
1.4998613e+01 -7.2697289e+01 0.0000000e+00 
1.3243663e+01 -7.2777359e+01 0.0000000e+00 
1.1512856e+01 -7.2838799e+01 0.0000000e+00 
9.8054686e+00 -7.2881058e+01 0.0000000e+00 
1.9152193e+01 -7.0061913e+01 0.0000000e+00 
1.7251900e+01 -7.0174438e+01 0.0000000e+00 
1.5376780e+01 -7.0270103e+01 0.0000000e+00 
1.3526087e+01 -7.0348427e+01 0.0000000e+00 
1.1699062e+01 -7.0408875e+01 0.0000000e+00 
9.8949356e+00 -7.0450844e+01 0.0000000e+00 
1.9702343e+01 -6.7505753e+01 0.0000000e+00 
1.7710279e+01 -6.7614662e+01 0.0000000e+00 
1.5742977e+01 -6.7707596e+01 0.0000000e+00 
1.3799639e+01 -6.7784035e+01 0.0000000e+00 
1.1879457e+01 -6.7843391e+01 0.0000000e+00 
9.9816122e+00 -6.7885025e+01 0.0000000e+00 
2.0233116e+01 -6.4818909e+01 0.0000000e+00 
1.8152643e+01 -6.4923981e+01 0.0000000e+00 
1.6096479e+01 -6.5014023e+01 0.0000000e+00 
1.4063779e+01 -6.5088440e+01 0.0000000e+00 
1.2053684e+01 -6.5146606e+01 0.0000000e+00 
1.0065326e+01 -6.5187843e+01 0.0000000e+00 
2.0743416e+01 -6.2005863e+01 0.0000000e+00 
1.8578077e+01 -6.2106895e+01 0.0000000e+00 
1.6436560e+01 -6.2193855e+01 0.0000000e+00 
1.4317965e+01 -6.2266117e+01 0.0000000e+00 
1.2221388e+01 -6.2323013e+01 0.0000000e+00 
1.0145909e+01 -6.2363800e+01 0.0000000e+00 
2.1232138e+01 -5.9071373e+01 0.0000000e+00 
1.8985666e+01 -5.9168144e+01 0.0000000e+00 
1.6762487e+01 -5.9251850e+01 0.0000000e+00 
1.4561656e+01 -5.9321835e+01 0.0000000e+00 
1.2382215e+01 -5.9377365e+01 0.0000000e+00 
1.0223196e+01 -5.9417660e+01 0.0000000e+00 
2.1698164e+01 -5.6020443e+01 0.0000000e+00 
1.9374487e+01 -5.6112732e+01 0.0000000e+00 
1.7073536e+01 -5.6193016e+01 0.0000000e+00 
1.4794317e+01 -5.6260590e+01 0.0000000e+00 
1.2535821e+01 -5.6314674e+01 0.0000000e+00 
1.0297025e+01 -5.6354439e+01 0.0000000e+00 
2.2140352e+01 -5.2858353e+01 0.0000000e+00 
1.9743603e+01 -5.2945934e+01 0.0000000e+00 
1.7368975e+01 -5.3022629e+01 0.0000000e+00 
1.5015415e+01 -5.3087669e+01 0.0000000e+00 
1.2681863e+01 -5.3140224e+01 0.0000000e+00 
1.0367242e+01 -5.3179405e+01 0.0000000e+00 
2.2557531e+01 -4.9590672e+01 0.0000000e+00 
2.0092068e+01 -4.9673317e+01 0.0000000e+00 
1.7648071e+01 -4.9746243e+01 0.0000000e+00 
1.5224427e+01 -4.9808620e+01 0.0000000e+00 
1.2820013e+01 -4.9859558e+01 0.0000000e+00 
1.0433699e+01 -4.9898102e+01 0.0000000e+00 
2.2948488e+01 -4.6223289e+01 0.0000000e+00 
2.0418919e+01 -4.6300766e+01 0.0000000e+00 
1.7910101e+01 -4.6369732e+01 0.0000000e+00 
1.5420842e+01 -4.6429298e+01 0.0000000e+00 
1.2949953e+01 -4.6478500e+01 0.0000000e+00 
1.0496248e+01 -4.6516319e+01 0.0000000e+00 
2.3311983e+01 -4.2762470e+01 0.0000000e+00 
2.0723190e+01 -4.2834530e+01 0.0000000e+00 
1.8154341e+01 -4.2899326e+01 0.0000000e+00 
1.5604156e+01 -4.2955887e+01 0.0000000e+00 
1.3071365e+01 -4.3003170e+01 0.0000000e+00 
1.0554729e+01 -4.3040092e+01 0.0000000e+00 
2.3646816e+01 -3.9214890e+01 0.0000000e+00 
2.1003950e+01 -3.9281281e+01 0.0000000e+00 
1.8380098e+01 -3.9341656e+01 0.0000000e+00 
1.5773868e+01 -3.9394924e+01 0.0000000e+00 
1.3183908e+01 -3.9439987e+01 0.0000000e+00 
1.0608931e+01 -3.9475708e+01 0.0000000e+00 
2.3951956e+01 -3.5587650e+01 0.0000000e+00 
2.1260378e+01 -3.5648151e+01 0.0000000e+00 
1.8586708e+01 -3.5703766e+01 0.0000000e+00 
1.5929441e+01 -3.5753311e+01 0.0000000e+00 
1.3287153e+01 -3.5795658e+01 0.0000000e+00 
1.0658533e+01 -3.5829681e+01 0.0000000e+00 
2.4226822e+01 -3.1888233e+01 0.0000000e+00 
2.1491905e+01 -3.1942665e+01 0.0000000e+00 
1.8773571e+01 -3.1993078e+01 0.0000000e+00 
1.6070244e+01 -3.2038254e+01 0.0000000e+00 
1.3380485e+01 -3.2077129e+01 0.0000000e+00 
1.0703008e+01 -3.2108719e+01 0.0000000e+00 
2.4471775e+01 -2.8124174e+01 0.0000000e+00 
2.1698423e+01 -2.8172485e+01 0.0000000e+00 
1.8940126e+01 -2.8217129e+01 0.0000000e+00 
1.6195395e+01 -2.8257027e+01 0.0000000e+00 
1.3462916e+01 -2.8291441e+01 0.0000000e+00 
1.0741515e+01 -2.8319714e+01 0.0000000e+00 
2.4688894e+01 -2.4302286e+01 0.0000000e+00 
2.1880529e+01 -2.4344660e+01 0.0000000e+00 
1.9085758e+01 -2.4382874e+01 0.0000000e+00 
1.6303537e+01 -2.4416471e+01 0.0000000e+00 
1.3532921e+01 -2.4445467e+01 0.0000000e+00 
1.0772849e+01 -2.4469753e+01 0.0000000e+00 
2.4882999e+01 -2.0426762e+01 0.0000000e+00 
2.2039635e+01 -2.0463846e+01 0.0000000e+00 
1.9209505e+01 -2.0495306e+01 0.0000000e+00 
1.6392658e+01 -2.0522215e+01 0.0000000e+00 
1.3588438e+01 -2.0545683e+01 0.0000000e+00 
1.0795560e+01 -2.0566259e+01 0.0000000e+00 
2.5061878e+01 -1.6495214e+01 0.0000000e+00 
2.2177641e+01 -1.6528755e+01 0.0000000e+00 
1.9310213e+01 -1.6555597e+01 0.0000000e+00 
1.6460552e+01 -1.6578018e+01 0.0000000e+00 
1.3627282e+01 -1.6598063e+01 0.0000000e+00 
1.0808261e+01 -1.6617050e+01 0.0000000e+00 
2.5230148e+01 -1.2494655e+01 0.0000000e+00 
2.2297657e+01 -1.2529101e+01 0.0000000e+00 
1.9388836e+01 -1.2560011e+01 0.0000000e+00 
1.6506231e+01 -1.2585427e+01 0.0000000e+00 
1.3647485e+01 -1.2607462e+01 0.0000000e+00 
1.0809924e+01 -1.2630531e+01 0.0000000e+00 
2.5369400e+01 -8.4221535e+00 0.0000000e+00 
2.2405115e+01 -8.4528942e+00 0.0000000e+00 
1.9453650e+01 -8.4988508e+00 0.0000000e+00 
1.6530615e+01 -8.5405312e+00 0.0000000e+00 
1.3647267e+01 -8.5766449e+00 0.0000000e+00 
1.0798068e+01 -8.6128626e+00 0.0000000e+00 
2.5445110e+01 -4.3127551e+00 0.0000000e+00 
2.2482235e+01 -4.3245797e+00 0.0000000e+00 
1.9522503e+01 -4.3481994e+00 0.0000000e+00 
1.6543989e+01 -4.4240227e+00 0.0000000e+00 
1.3599565e+01 -4.4757791e+00 0.0000000e+00 
1.0788363e+01 -4.5892992e+00 0.0000000e+00 
2.5463123e+01 -2.0142551e-01 0.0000000e+00 
2.2504652e+01 -2.0150355e-01 0.0000000e+00 
1.9540041e+01 -1.6910039e-01 0.0000000e+00 
1.6458124e+01 0.0000000e+00 0.0000000e+00 
1.3621017e+01 -3.8066590e-01 0.0000000e+00 
1.0817326e+01 -6.0095090e-01 0.0000000e+00 
REACTION 3 420  float
-1.9972504e-09 -1.6443664e-09 0.0000000e+00 
6.5483619e-10 1.0040822e-09 0.0000000e+00 
-6.2573235e-10 -8.2945917e-10 0.0000000e+00 
-1.1641532e-09 6.0000000e+05 0.0000000e+00 
-8.1490725e-10 -6.9849193e-10 0.0000000e+00 
1.6225385e-09 2.6193447e-10 0.0000000e+00 
-3.2014214e-10 -9.5315045e-10 0.0000000e+00 
2.1536835e-09 2.1391315e-09 0.0000000e+00 
-8.8766683e-10 -6.9849193e-10 0.0000000e+00 
2.4174369e-09 2.9249350e-09 0.0000000e+00 
-1.2223609e-09 2.6193447e-10 0.0000000e+00 
1.8771971e-09 1.3096724e-10 0.0000000e+00 
-2.9103830e-11 1.4360921e-09 0.0000000e+00 
-3.8198777e-09 -7.5415301e-09 0.0000000e+00 
6.0099410e-09 6.5629138e-09 0.0000000e+00 
-1.7134880e-09 -5.5297278e-10 0.0000000e+00 
-1.7316779e-09 -4.4165063e-09 0.0000000e+00 
1.7171260e-09 -1.2805685e-08 0.0000000e+00 
-4.4528861e-09 -5.6572844e-09 0.0000000e+00 
4.3728505e-09 7.1522663e-09 0.0000000e+00 
-1.1350494e-09 -7.6761353e-10 0.0000000e+00 
-1.6716513e-09 -1.0259100e-09 0.0000000e+00 
1.6007107e-10 4.2964530e-09 0.0000000e+00 
9.4587449e-11 -6.0899765e-09 0.0000000e+00 
-9.8953024e-10 5.5479177e-11 0.0000000e+00 
2.6775524e-09 -6.8939698e-10 0.0000000e+00 
-4.8312359e-09 -4.6056812e-09 0.0000000e+00 
9.0840331e-09 1.5155820e-08 0.0000000e+00 
-6.7848305e-09 -8.8584784e-09 0.0000000e+00 
5.0786184e-09 1.5046680e-08 0.0000000e+00 
3.8853614e-09 8.8143679e-09 0.0000000e+00 