# vtk DataFile Version 4.0
vtk output
ASCII
DATASET UNSTRUCTURED_GRID
POINTS 33 float
5.0147186e+02 -1.0592232e+02 0.0000000e+00 
5.0387683e+02 -7.5947556e+01 0.0000000e+00 
5.0624622e+02 -4.5951893e+01 0.0000000e+00 
5.4329413e+02 -1.0926369e+02 0.0000000e+00 
5.4563269e+02 -7.9284424e+01 0.0000000e+00 
5.4795520e+02 -4.9297806e+01 0.0000000e+00 
5.8513574e+02 -1.1251070e+02 0.0000000e+00 
5.8740649e+02 -8.2536568e+01 0.0000000e+00 
5.8966650e+02 -5.2550625e+01 0.0000000e+00 
6.2699280e+02 -1.1565944e+02 0.0000000e+00 
6.2919098e+02 -8.5687553e+01 0.0000000e+00 
6.3138062e+02 -5.5703091e+01 0.0000000e+00 
6.6886163e+02 -1.1870302e+02 0.0000000e+00 
6.7098328e+02 -8.8732994e+01 0.0000000e+00 
6.7309772e+02 -5.8749363e+01 0.0000000e+00 
7.1074048e+02 -1.2163686e+02 0.0000000e+00 
7.1278186e+02 -9.1668045e+01 0.0000000e+00 
7.1481708e+02 -6.1684883e+01 0.0000000e+00 
7.5262787e+02 -1.2445628e+02 0.0000000e+00 
7.5458545e+02 -9.4488121e+01 0.0000000e+00 
7.5653796e+02 -6.4504990e+01 0.0000000e+00 
7.9452271e+02 -1.2715630e+02 0.0000000e+00 
7.9639258e+02 -9.7188354e+01 0.0000000e+00 
7.9825928e+02 -6.7204865e+01 0.0000000e+00 
8.3642371e+02 -1.2973151e+02 0.0000000e+00 
8.3820129e+02 -9.9763489e+01 0.0000000e+00 
8.3997955e+02 -6.9779411e+01 0.0000000e+00 
8.7833063e+02 -1.3217599e+02 0.0000000e+00 
8.8000543e+02 -1.0220721e+02 0.0000000e+00 
8.8169696e+02 -7.2221619e+01 0.0000000e+00 
9.2024188e+02 -1.3446043e+02 0.0000000e+00 
9.2179626e+02 -1.0450833e+02 0.0000000e+00 
9.2341656e+02 -7.4547020e+01 0.0000000e+00 

CELLS 20 100
4 0 3 4 1
4 1 4 5 2
4 3 6 7 4
4 4 7 8 5
4 6 9 10 7
4 7 10 11 8
4 9 12 13 10
4 10 13 14 11
4 12 15 16 13
4 13 16 17 14
4 15 18 19 16
4 16 19 20 17
4 18 21 22 19
4 19 22 23 20
4 21 24 25 22
4 22 25 26 23
4 24 27 28 25
4 25 28 29 26
4 27 30 31 28
4 28 31 32 29

CELL_TYPES 20
9
9
9
9
9
9
9
9
9
9
9
9
9
9
9
9
9
9
9
9
POINT_DATA 33
FIELD FieldData 5
DISPLACEMENT 3 33  float
1.4718760e+00 -4.5922318e+01 0.0000000e+00 
3.8768270e+00 -4.5947556e+01 0.0000000e+00 
6.2462058e+00 -4.5951893e+01 0.0000000e+00 
1.6274867e+00 -4.9263683e+01 0.0000000e+00 
3.9660196e+00 -4.9284420e+01 0.0000000e+00 
6.2885127e+00 -4.9297806e+01 0.0000000e+00 
1.8024222e+00 -5.2510704e+01 0.0000000e+00 
4.0731373e+00 -5.2536568e+01 0.0000000e+00 
6.3331494e+00 -5.2550625e+01 0.0000000e+00 
1.9928179e+00 -5.5659443e+01 0.0000000e+00 
4.1909719e+00 -5.5687557e+01 0.0000000e+00 
6.3806024e+00 -5.5703091e+01 0.0000000e+00 
2.1949673e+00 -5.8703022e+01 0.0000000e+00 
4.3166265e+00 -5.8732990e+01 0.0000000e+00 
6.4310331e+00 -5.8749363e+01 0.0000000e+00 
2.4071169e+00 -6.1636856e+01 0.0000000e+00 
4.4485483e+00 -6.1668041e+01 0.0000000e+00 
6.4837556e+00 -6.1684883e+01 0.0000000e+00 
2.6278656e+00 -6.4456284e+01 0.0000000e+00 
4.5854502e+00 -6.4488121e+01 0.0000000e+00 
6.5379643e+00 -6.4504990e+01 0.0000000e+00 
2.8560219e+00 -6.7156303e+01 0.0000000e+00 
4.7259264e+00 -6.7188354e+01 0.0000000e+00 
6.5926394e+00 -6.7204865e+01 0.0000000e+00 
3.0903633e+00 -6.9731499e+01 0.0000000e+00 
4.8679833e+00 -6.9763489e+01 0.0000000e+00 
6.6462259e+00 -6.9779411e+01 0.0000000e+00 
3.3306293e+00 -7.2175995e+01 0.0000000e+00 
5.0054102e+00 -7.2207214e+01 0.0000000e+00 
6.6969671e+00 -7.2221619e+01 0.0000000e+00 
3.5752275e+00 -7.4460434e+01 0.0000000e+00 
5.1296215e+00 -7.4508331e+01 0.0000000e+00 
6.7499223e+00 -7.4547020e+01 0.0000000e+00 
REACTION 3 33  float
-9.8079909e-09 -1.2514647e-08 0.0000000e+00 
-1.5133992e-09 -1.6734703e-09 0.0000000e+00 
-4.9803930e-09 -3.6598067e-09 0.0000000e+00 
3.4924597e-09 7.7016011e-09 0.0000000e+00 
1.6079866e-09 -8.7893568e-09 0.0000000e+00 
-4.9803930e-09 -1.0135409e-08 0.0000000e+00 
5.7916623e-09 3.6881829e-08 0.0000000e+00 
-4.7293724e-09 -6.5945642e-08 0.0000000e+00 
2.1227606e-09 5.8244041e-08 0.0000000e+00 
-2.4738256e-09 1.9754225e-09 0.0000000e+00 
9.6042641e-10 -1.0473741e-08 0.0000000e+00 
1.0804797e-08 -1.9354047e-09 0.0000000e+00 
-1.7869752e-08 -2.6884663e-09 0.0000000e+00 
3.2014214e-09 4.9003575e-09 0.0000000e+00 
2.6893758e-09 -8.3200575e-09 0.0000000e+00 
-1.3300451e-08 -2.6866473e-08 0.0000000e+00 
-1.9790605e-09 3.0166120e-08 0.0000000e+00 
4.6456989e-09 -4.9705704e-08 0.0000000e+00 
1.9208528e-09 -3.5513949e-08 0.0000000e+00 
-1.7113052e-08 4.6158675e-08 0.0000000e+00 
6.0390448e-09 -2.6353518e-08 0.0000000e+00 
-5.5006240e-09 -9.6042641e-09 0.0000000e+00 
-1.2601959e-08 -1.9692379e-08 0.0000000e+00 
1.3460522e-08 3.7951395e-08 0.0000000e+00 
1.2747478e-08 2.1682354e-09 0.0000000e+00 
2.2992026e-09 6.0572347e-09 0.0000000e+00 
2.4556357e-09 2.4110705e-08 0.0000000e+00 
1.3562385e-08 6.6786015e-08 0.0000000e+00 
-1.0390067e-08 -4.7992216e-08 0.0000000e+00 
3.6270649e-09 1.4435500e-08 0.0000000e+00 
1.0826625e-08 -8.0217433e-10 0.0000000e+00 
-8.1490725e-10 3.7562131e-08 0.0000000e+00 
-6.1409082e-09 -2.6026100e-08 0.0000000e+00 
PK2_STRESS_VECTOR 6 33  float
7.4424095e+01 -1.5852393e+00 -8.8081636e+00 0.0000000e+00 0.0000000e+00 0.0000000e+00 
5.7601357e+01 -4.2364374e-01 -1.9523502e+01 0.0000000e+00 0.0000000e+00 0.0000000e+00 
3.0453045e+01 -3.6723766e-01 -2.8192118e+01 0.0000000e+00 0.0000000e+00 0.0000000e+00 
8.5684959e+01 4.6814597e-01 -1.1649994e+01 0.0000000e+00 0.0000000e+00 0.0000000e+00 
7.5423256e+01 9.7399509e-01 -1.8120239e+01 0.0000000e+00 0.0000000e+00 0.0000000e+00 
3.1970842e+01 -4.6778888e-01 -2.3342766e+01 0.0000000e+00 0.0000000e+00 0.0000000e+00 
9.4223007e+01 1.0325061e+00 -1.2694422e+01 0.0000000e+00 0.0000000e+00 0.0000000e+00 
8.4996399e+01 6.3523066e-01 -1.6876066e+01 0.0000000e+00 0.0000000e+00 0.0000000e+00 
3.4318947e+01 -7.7946883e-01 -2.0412294e+01 0.0000000e+00 0.0000000e+00 0.0000000e+00 
1.0098949e+02 5.7857335e-01 -1.2761168e+01 0.0000000e+00 0.0000000e+00 0.0000000e+00 
9.1599892e+01 2.5429827e-01 -1.5600962e+01 0.0000000e+00 0.0000000e+00 0.0000000e+00 
3.6633537e+01 -6.6275954e-01 -1.8471518e+01 0.0000000e+00 0.0000000e+00 0.0000000e+00 
1.0654860e+02 3.4894261e-01 -1.2641295e+01 0.0000000e+00 0.0000000e+00 0.0000000e+00 
9.6784660e+01 1.4472367e-01 -1.4782154e+01 0.0000000e+00 0.0000000e+00 0.0000000e+00 
3.8648281e+01 -5.2080953e-01 -1.7107927e+01 0.0000000e+00 0.0000000e+00 0.0000000e+00 
1.1138215e+02 4.5782754e-01 -1.2609102e+01 0.0000000e+00 0.0000000e+00 0.0000000e+00 
1.0104269e+02 3.3021945e-01 -1.4181886e+01 0.0000000e+00 0.0000000e+00 0.0000000e+00 
4.0159492e+01 -2.3777442e-01 -1.6007719e+01 0.0000000e+00 0.0000000e+00 0.0000000e+00 
1.1560276e+02 9.0101457e-01 -1.2683878e+01 0.0000000e+00 0.0000000e+00 0.0000000e+00 
1.0442405e+02 8.0628836e-01 -1.3654172e+01 0.0000000e+00 0.0000000e+00 0.0000000e+00 
4.1052654e+01 1.8274084e-01 -1.4892101e+01 0.0000000e+00 0.0000000e+00 0.0000000e+00 
1.1911137e+02 1.4039397e+00 -1.2990268e+01 0.0000000e+00 0.0000000e+00 0.0000000e+00 
1.0667800e+02 1.4183441e+00 -1.3068688e+01 0.0000000e+00 0.0000000e+00 0.0000000e+00 
4.1069263e+01 5.5412364e-01 -1.3429921e+01 0.0000000e+00 0.0000000e+00 0.0000000e+00 
1.2158617e+02 1.2697361e+00 -1.4217786e+01 0.0000000e+00 0.0000000e+00 0.0000000e+00 
1.0652769e+02 1.8152214e+00 -1.2298128e+01 0.0000000e+00 0.0000000e+00 0.0000000e+00 
3.9795616e+01 1.8390718e-01 -1.0754786e+01 0.0000000e+00 0.0000000e+00 0.0000000e+00 
1.2255155e+02 -9.3289077e-01 -1.5653339e+01 0.0000000e+00 0.0000000e+00 0.0000000e+00 
1.0169188e+02 -2.0973613e+00 -1.0654469e+01 0.0000000e+00 0.0000000e+00 0.0000000e+00 
3.8124245e+01 -3.9351628e+00 -7.1270366e+00 0.0000000e+00 0.0000000e+00 0.0000000e+00 
1.1766479e+02 -4.1355956e-01 -1.5083307e+01 0.0000000e+00 0.0000000e+00 0.0000000e+00 
8.9931236e+01 -3.9767766e+00 -3.8132398e+00 0.0000000e+00 0.0000000e+00 0.0000000e+00 
4.2764194e+01 -5.3440266e+00 -1.8702024e+00 0.0000000e+00 0.0000000e+00 0.0000000e+00 
EQUIVALENT_PLASTIC_STRAIN 1 33  float
0.0000000e+00
0.0000000e+00
0.0000000e+00
0.0000000e+00
0.0000000e+00
0.0000000e+00
0.0000000e+00
0.0000000e+00
0.0000000e+00
0.0000000e+00
0.0000000e+00
0.0000000e+00
0.0000000e+00
0.0000000e+00
0.0000000e+00
0.0000000e+00
0.0000000e+00
0.0000000e+00
0.0000000e+00
0.0000000e+00
0.0000000e+00
0.0000000e+00
0.0000000e+00
0.0000000e+00
0.0000000e+00
0.0000000e+00
0.0000000e+00
0.0000000e+00
0.0000000e+00
0.0000000e+00
0.0000000e+00
0.0000000e+00
0.0000000e+00
PLASTIC_STRAIN_VECTOR 4 33  float
0.0000000e+00 0.0000000e+00 0.0000000e+00 0.0000000e+00 
0.0000000e+00 0.0000000e+00 0.0000000e+00 0.0000000e+00 
0.0000000e+00 0.0000000e+00 0.0000000e+00 0.0000000e+00 
0.0000000e+00 0.0000000e+00 0.0000000e+00 0.0000000e+00 
0.0000000e+00 0.0000000e+00 0.0000000e+00 0.0000000e+00 
0.0000000e+00 0.0000000e+00 0.0000000e+00 0.0000000e+00 
0.0000000e+00 0.0000000e+00 0.0000000e+00 0.0000000e+00 
0.0000000e+00 0.0000000e+00 0.0000000e+00 0.0000000e+00 
0.0000000e+00 0.0000000e+00 0.0000000e+00 0.0000000e+00 
0.0000000e+00 0.0000000e+00 0.0000000e+00 0.0000000e+00 
0.0000000e+00 0.0000000e+00 0.0000000e+00 0.0000000e+00 
0.0000000e+00 0.0000000e+00 0.0000000e+00 0.0000000e+00 
0.0000000e+00 0.0000000e+00 0.0000000e+00 0.0000000e+00 
0.0000000e+00 0.0000000e+00 0.0000000e+00 0.0000000e+00 
0.0000000e+00 0.0000000e+00 0.0000000e+00 0.0000000e+00 
0.0000000e+00 0.0000000e+00 0.0000000e+00 0.0000000e+00 
0.0000000e+00 0.0000000e+00 0.0000000e+00 0.0000000e+00 
0.0000000e+00 0.0000000e+00 0.0000000e+00 0.0000000e+00 
0.0000000e+00 0.0000000e+00 0.0000000e+00 0.0000000e+00 
0.0000000e+00 0.0000000e+00 0.0000000e+00 0.0000000e+00 
0.0000000e+00 0.0000000e+00 0.0000000e+00 0.0000000e+00 
0.0000000e+00 0.0000000e+00 0.0000000e+00 0.0000000e+00 
0.0000000e+00 0.0000000e+00 0.0000000e+00 0.0000000e+00 
0.0000000e+00 0.0000000e+00 0.0000000e+00 0.0000000e+00 
0.0000000e+00 0.0000000e+00 0.0000000e+00 0.0000000e+00 
0.0000000e+00 0.0000000e+00 0.0000000e+00 0.0000000e+00 
0.0000000e+00 0.0000000e+00 0.0000000e+00 0.0000000e+00 
0.0000000e+00 0.0000000e+00 0.0000000e+00 0.0000000e+00 
0.0000000e+00 0.0000000e+00 0.0000000e+00 0.0000000e+00 
0.0000000e+00 0.0000000e+00 0.0000000e+00 0.0000000e+00 
0.0000000e+00 0.0000000e+00 0.0000000e+00 0.0000000e+00 
0.0000000e+00 0.0000000e+00 0.0000000e+00 0.0000000e+00 
0.0000000e+00 0.0000000e+00 0.0000000e+00 0.0000000e+00 
CELL_DATA 20
FIELD FieldData 3
PK2_STRESS_VECTOR 3 20  float
9.1535736e+01 -1.0619638e+00 -1.3508885e+01 
5.0138836e+01 3.3054497e+00 -2.4943155e+01 
1.0634912e+02 2.3164973e+00 -1.4614974e+01 
5.6890514e+01 -6.9539487e-02 -2.1056269e+01 
1.1579511e+02 8.3530420e-01 -1.3944697e+01 
6.2005310e+01 9.0259381e-02 -1.8509350e+01 
1.2305437e+02 5.1134348e-01 -1.3390913e+01 
6.6003021e+01 -1.1591250e-01 -1.7081785e+01 
1.2913449e+02 4.3068463e-01 -1.3022116e+01 
6.9244957e+01 1.3146303e-02 -1.6083061e+01 
1.3430705e+02 7.5250840e-01 -1.2797386e+01 
7.1761864e+01 3.8149950e-01 -1.5252172e+01 
1.3858003e+02 1.3715379e+00 -1.2645525e+01 
7.3424370e+01 9.7100693e-01 -1.4344382e+01 
1.4166512e+02 2.0624652e+00 -1.2647591e+01 
7.3753044e+01 1.5462248e+00 -1.3086409e+01 
1.4229704e+02 2.6494195e+00 -1.3983239e+01 
7.1055084e+01 1.9690064e+00 -1.0015377e+01 
1.3653464e+02 -7.0759606e+00 -1.5089192e+01 
6.3492931e+01 -1.1778598e+01 -4.0075421e+00 
EQUIVALENT_PLASTIC_STRAIN 1 20  float
0.0000000e+00
0.0000000e+00
0.0000000e+00
0.0000000e+00
0.0000000e+00
0.0000000e+00
0.0000000e+00
0.0000000e+00
0.0000000e+00
0.0000000e+00
0.0000000e+00
0.0000000e+00
0.0000000e+00
0.0000000e+00
0.0000000e+00
0.0000000e+00
0.0000000e+00
0.0000000e+00
0.0000000e+00
0.0000000e+00
PLASTIC_STRAIN_VECTOR 3 20  float
0.0000000e+00 0.0000000e+00 0.0000000e+00 
0.0000000e+00 0.0000000e+00 0.0000000e+00 
0.0000000e+00 0.0000000e+00 0.0000000e+00 
0.0000000e+00 0.0000000e+00 0.0000000e+00 
0.0000000e+00 0.0000000e+00 0.0000000e+00 
0.0000000e+00 0.0000000e+00 0.0000000e+00 
0.0000000e+00 0.0000000e+00 0.0000000e+00 
0.0000000e+00 0.0000000e+00 0.0000000e+00 
0.0000000e+00 0.0000000e+00 0.0000000e+00 
0.0000000e+00 0.0000000e+00 0.0000000e+00 
0.0000000e+00 0.0000000e+00 0.0000000e+00 
0.0000000e+00 0.0000000e+00 0.0000000e+00 
0.0000000e+00 0.0000000e+00 0.0000000e+00 
0.0000000e+00 0.0000000e+00 0.0000000e+00 
0.0000000e+00 0.0000000e+00 0.0000000e+00 
0.0000000e+00 0.0000000e+00 0.0000000e+00 
0.0000000e+00 0.0000000e+00 0.0000000e+00 
0.0000000e+00 0.0000000e+00 0.0000000e+00 
0.0000000e+00 0.0000000e+00 0.0000000e+00 
0.0000000e+00 0.0000000e+00 0.0000000e+00 
