# vtk DataFile Version 4.0
vtk output
ASCII
DATASET UNSTRUCTURED_GRID
POINTS 438 float
5.8953872e+00 -4.8259318e-01 0.0000000e+00 
8.6764336e+00 2.9462847e+01 0.0000000e+00 
1.1458762e+01 5.9432362e+01 0.0000000e+00 
1.4249461e+01 8.9417366e+01 0.0000000e+00 
1.7050556e+01 1.1941136e+02 0.0000000e+00 
1.9859676e+01 1.4940778e+02 0.0000000e+00 
4.7577488e+01 -4.4054885e+00 0.0000000e+00 
5.0351124e+01 2.5559446e+01 0.0000000e+00 
5.3130020e+01 5.5533127e+01 0.0000000e+00 
5.5916733e+01 8.5515984e+01 0.0000000e+00 
5.8715549e+01 1.1550655e+02 0.0000000e+00 
6.1527328e+01 1.4550186e+02 0.0000000e+00 
8.9229683e+01 -8.3818493e+00 0.0000000e+00 
9.2013504e+01 2.1605595e+01 0.0000000e+00 
9.4790916e+01 5.1593002e+01 0.0000000e+00 
9.7573608e+01 8.1584412e+01 0.0000000e+00 
1.0036938e+02 1.1158051e+02 0.0000000e+00 
1.0318568e+02 1.4157956e+02 0.0000000e+00 
1.3088126e+02 -1.2358763e+01 0.0000000e+00 
1.3366566e+02 1.7640551e+01 0.0000000e+00 
1.3643875e+02 4.7639362e+01 0.0000000e+00 
1.3921480e+02 7.7639404e+01 0.0000000e+00 
1.4200473e+02 1.0764172e+02 0.0000000e+00 
1.4481972e+02 1.3764603e+02 0.0000000e+00 
1.7254994e+02 -1.6306532e+01 0.0000000e+00 
1.7531712e+02 1.3693833e+01 0.0000000e+00 
1.7807733e+02 4.3696972e+01 0.0000000e+00 
1.8084071e+02 7.3702034e+01 0.0000000e+00 
1.8361833e+02 1.0370921e+02 0.0000000e+00 
1.8642174e+02 1.3371887e+02 0.0000000e+00 
2.1423112e+02 -2.0219675e+01 0.0000000e+00 
2.1697290e+02 9.7799349e+00 0.0000000e+00 
2.1971060e+02 3.9783695e+01 0.0000000e+00 
2.2245302e+02 6.9790993e+01 0.0000000e+00 
2.2520978e+02 9.9801659e+01 0.0000000e+00 
2.2799113e+02 1.2981621e+02 0.0000000e+00 
2.5592261e+02 -2.4089474e+01 0.0000000e+00 
2.5863239e+02 5.9085660e+00 0.0000000e+00 
2.6133984e+02 3.5912010e+01 0.0000000e+00 
2.6405295e+02 6.5920448e+01 0.0000000e+00 
2.6678021e+02 9.5933868e+01 0.0000000e+00 
2.6953040e+02 1.2595278e+02 0.0000000e+00 
2.9762323e+02 -2.7907040e+01 0.0000000e+00 
3.0029468e+02 2.0891089e+00 0.0000000e+00 
3.0296490e+02 3.2091949e+01 0.0000000e+00 
3.0564117e+02 6.2101265e+01 0.0000000e+00 
3.0833112e+02 9.2117142e+01 0.0000000e+00 
3.1104245e+02 1.2214001e+02 0.0000000e+00 
3.3933197e+02 -3.1664356e+01 0.0000000e+00 
3.4195914e+02 -1.6701157e+00 0.0000000e+00 
3.4458557e+02 2.8332144e+01 0.0000000e+00 
3.4721805e+02 5.8342350e+01 0.0000000e+00 
3.4986371e+02 8.8360588e+01 0.0000000e+00 
3.5252963e+02 1.1838716e+02 0.0000000e+00 
3.8104813e+02 -3.5354340e+01 0.0000000e+00 
3.8362531e+02 -5.3617983e+00 0.0000000e+00 
3.8620160e+02 2.4640207e+01 0.0000000e+00 
3.8878384e+02 5.4651638e+01 0.0000000e+00 
3.9137894e+02 8.4672371e+01 0.0000000e+00 
3.9399344e+02 1.1470251e+02 0.0000000e+00 
4.2277182e+02 -3.8970688e+01 0.0000000e+00 
4.2529276e+02 -8.9793777e+00 0.0000000e+00 
4.2781226e+02 2.1023407e+01 0.0000000e+00 
4.3033838e+02 5.1036922e+01 0.0000000e+00 
4.3287747e+02 8.1060402e+01 0.0000000e+00 
4.3543509e+02 1.1109402e+02 0.0000000e+00 
4.6450476e+02 -4.2507885e+01 0.0000000e+00 
4.6695950e+02 -1.2515496e+01 0.0000000e+00 
4.6941568e+02 1.7490259e+01 0.0000000e+00 
4.7188135e+02 4.7506218e+01 0.0000000e+00 
4.7436011e+02 7.7532356e+01 0.0000000e+00 
4.7685614e+02 1.0756917e+02 0.0000000e+00 
5.0624622e+02 -4.5951893e+01 0.0000000e+00 
5.0861975e+02 -1.5956851e+01 0.0000000e+00 
5.1101135e+02 1.4049332e+01 0.0000000e+00 
5.1341315e+02 4.4066376e+01 0.0000000e+00 
5.1582788e+02 7.4094482e+01 0.0000000e+00 
5.1825867e+02 1.0413407e+02 0.0000000e+00 
5.4795520e+02 -4.9297806e+01 0.0000000e+00 
5.5027460e+02 -1.9302004e+01 0.0000000e+00 
5.5259955e+02 1.0703432e+01 0.0000000e+00 
5.5493469e+02 4.0720951e+01 0.0000000e+00 
5.5728204e+02 7.0750679e+01 0.0000000e+00 
5.5964465e+02 1.0079278e+02 0.0000000e+00 
5.8966650e+02 -5.2550625e+01 0.0000000e+00 
5.9192224e+02 -2.2554392e+01 0.0000000e+00 
5.9418048e+02 7.4528923e+00 0.0000000e+00 
5.9644617e+02 3.7471977e+01 0.0000000e+00 
5.9872321e+02 6.7503677e+01 0.0000000e+00 
6.0101501e+02 9.7548309e+01 0.0000000e+00 
6.3138062e+02 -5.5703091e+01 0.0000000e+00 
6.3356671e+02 -2.5706470e+01 0.0000000e+00 
6.3575421e+02 4.3021560e+00 0.0000000e+00 
6.3794788e+02 3.4323185e+01 0.0000000e+00 
6.4015173e+02 6.4357079e+01 0.0000000e+00 
6.4236975e+02 9.4404282e+01 0.0000000e+00 
6.7309772e+02 -5.8749363e+01 0.0000000e+00 
6.7520917e+02 -2.8752625e+01 0.0000000e+00 
6.7732202e+02 1.2570434e+00 0.0000000e+00 
6.7944031e+02 3.1279707e+01 0.0000000e+00 
6.8156805e+02 6.1315666e+01 0.0000000e+00 
6.8370905e+02 9.1365349e+01 0.0000000e+00 
7.1481708e+02 -6.1684883e+01 0.0000000e+00 
7.1685010e+02 -3.1687872e+01 0.0000000e+00 
7.1888464e+02 -1.6773109e+00 0.0000000e+00 
7.2092444e+02 2.8346758e+01 0.0000000e+00 
7.2297296e+02 5.8384552e+01 0.0000000e+00 
7.2503363e+02 8.8436531e+01 0.0000000e+00 
7.5653796e+02 -6.4504990e+01 0.0000000e+00 
7.5848920e+02 -3.4507530e+01 0.0000000e+00 
7.6044257e+02 -4.4961624e+00 0.0000000e+00 
7.6240100e+02 2.5529070e+01 0.0000000e+00 
7.6436749e+02 5.5568432e+01 0.0000000e+00 
7.6634491e+02 8.5622437e+01 0.0000000e+00 
7.9825928e+02 -6.7204865e+01 0.0000000e+00 
8.0012634e+02 -3.7206970e+01 0.0000000e+00 
8.0199615e+02 -7.1951766e+00 0.0000000e+00 
8.0387079e+02 2.2830618e+01 0.0000000e+00 
8.0575262e+02 5.2871075e+01 0.0000000e+00 
8.0764435e+02 8.2926811e+01 0.0000000e+00 
8.3997955e+02 -6.9779411e+01 0.0000000e+00 
8.4176160e+02 -3.9781475e+01 0.0000000e+00 
8.4354694e+02 -9.7709017e+00 0.0000000e+00 
8.4533527e+02 2.0254147e+01 0.0000000e+00 
8.4712939e+02 5.0295132e+01 0.0000000e+00 
8.4893292e+02 8.0352402e+01 0.0000000e+00 
8.8169696e+02 -7.2221619e+01 0.0000000e+00 
8.8339862e+02 -4.2229111e+01 0.0000000e+00 
8.8509778e+02 -1.2222683e+01 0.0000000e+00 
8.8679565e+02 1.7801294e+01 0.0000000e+00 
8.8849823e+02 4.7842907e+01 0.0000000e+00 
8.9021051e+02 7.7901871e+01 0.0000000e+00 
9.2341656e+02 -7.4547020e+01 0.0000000e+00 
9.2504401e+02 -4.4557888e+01 0.0000000e+00 
9.2664917e+02 -1.4550365e+01 0.0000000e+00 
9.2825183e+02 1.5475206e+01 0.0000000e+00 
9.2985858e+02 4.5518574e+01 0.0000000e+00 
9.3147546e+02 7.5579659e+01 0.0000000e+00 
9.6518091e+02 -7.6749207e+01 0.0000000e+00 
9.6669434e+02 -4.6755981e+01 0.0000000e+00 
9.6819995e+02 -1.6744156e+01 0.0000000e+00 
9.6970306e+02 1.3284247e+01 0.0000000e+00 
9.7121014e+02 4.3329807e+01 0.0000000e+00 
9.7272675e+02 7.3393135e+01 0.0000000e+00 
1.0069529e+03 -7.8789246e+01 0.0000000e+00 
1.0083516e+03 -4.8799942e+01 0.0000000e+00 
1.0097505e+03 -1.8789968e+01 0.0000000e+00 
1.0111500e+03 1.1238744e+01 0.0000000e+00 
1.0125534e+03 4.1285469e+01 0.0000000e+00 
1.0139650e+03 7.1350601e+01 0.0000000e+00 
1.0487246e+03 -8.0680084e+01 0.0000000e+00 
1.0500126e+03 -5.0691715e+01 0.0000000e+00 
1.0513019e+03 -2.0683344e+01 0.0000000e+00 
1.0525935e+03 9.3446369e+00 0.0000000e+00 
1.0538898e+03 3.9391800e+01 0.0000000e+00 
1.0551929e+03 6.9458237e+01 0.0000000e+00 
1.0904955e+03 -8.2420135e+01 0.0000000e+00 
1.0916735e+03 -5.2431679e+01 0.0000000e+00 
1.0928524e+03 -2.2423538e+01 0.0000000e+00 
1.0940341e+03 7.6043520e+00 0.0000000e+00 
1.0952201e+03 3.7651997e+01 0.0000000e+00 
1.0964124e+03 6.7719528e+01 0.0000000e+00 
1.1322665e+03 -8.4005898e+01 0.0000000e+00 
1.1333336e+03 -5.4017139e+01 0.0000000e+00 
1.1344012e+03 -2.4008680e+01 0.0000000e+00 
1.1354712e+03 6.0196419e+00 0.0000000e+00 
1.1365452e+03 3.6067989e+01 0.0000000e+00 
1.1376250e+03 6.6136551e+01 0.0000000e+00 
1.1740383e+03 -8.5434250e+01 0.0000000e+00 
1.1749929e+03 -5.5445240e+01 0.0000000e+00 
1.1759479e+03 -2.5436359e+01 0.0000000e+00 
1.1769048e+03 4.5925426e+00 0.0000000e+00 
1.1778654e+03 3.4641655e+01 0.0000000e+00 
1.1788312e+03 6.4711205e+01 0.0000000e+00 
1.2158110e+03 -8.6702576e+01 0.0000000e+00 
1.2166519e+03 -5.6713448e+01 0.0000000e+00 
1.2174927e+03 -2.6704218e+01 0.0000000e+00 
1.2183353e+03 3.3252161e+00 0.0000000e+00 
1.2191810e+03 3.3375038e+01 0.0000000e+00 
1.2200315e+03 6.3445496e+01 0.0000000e+00 
1.2575851e+03 -8.7808746e+01 0.0000000e+00 
1.2583105e+03 -5.7819607e+01 0.0000000e+00 
1.2590360e+03 -2.7810139e+01 0.0000000e+00 
1.2597629e+03 2.2197220e+00 0.0000000e+00 
1.2604926e+03 3.2270153e+01 0.0000000e+00 
1.2612264e+03 6.2341412e+01 0.0000000e+00 
1.2993601e+03 -8.8751015e+01 0.0000000e+00 
1.2999690e+03 -5.8761921e+01 0.0000000e+00 
1.3005780e+03 -2.8752310e+01 0.0000000e+00 
1.3011882e+03 1.2778809e+00 0.0000000e+00 
1.3018007e+03 3.1328814e+01 0.0000000e+00 
1.3024166e+03 6.1400757e+01 0.0000000e+00 
1.3411360e+03 -8.9527954e+01 0.0000000e+00 
1.3416274e+03 -5.9538933e+01 0.0000000e+00 
1.3421190e+03 -2.9529226e+01 0.0000000e+00 
1.3426115e+03 5.0121403e-01 0.0000000e+00 
1.3431058e+03 3.0552549e+01 0.0000000e+00 
1.3436029e+03 6.0625053e+01 0.0000000e+00 
1.3829126e+03 -9.0138420e+01 0.0000000e+00 
1.3832859e+03 -6.0149460e+01 0.0000000e+00 
1.3836591e+03 -3.0139690e+01 0.0000000e+00 
1.3840331e+03 -1.0906232e-01 0.0000000e+00 
1.3844086e+03 2.9942585e+01 0.0000000e+00 
1.3847861e+03 6.0015522e+01 0.0000000e+00 
1.4246898e+03 -9.0581520e+01 0.0000000e+00 
1.4249441e+03 -6.0592598e+01 0.0000000e+00 
1.4251986e+03 -3.0582783e+01 0.0000000e+00 
1.4254536e+03 -5.5202305e-01 0.0000000e+00 
1.4257096e+03 2.9499847e+01 0.0000000e+00 
1.4259669e+03 5.9573093e+01 0.0000000e+00 
1.4664672e+03 -9.0856606e+01 0.0000000e+00 
1.4666024e+03 -6.0867706e+01 0.0000000e+00 
1.4667377e+03 -3.0857862e+01 0.0000000e+00 
1.4668732e+03 -8.2701898e-01 0.0000000e+00 
1.4670093e+03 2.9224987e+01 0.0000000e+00 
1.4671461e+03 5.9298428e+01 0.0000000e+00 
1.5082448e+03 -9.0963295e+01 0.0000000e+00 
1.5082606e+03 -6.0974400e+01 0.0000000e+00 
1.5082765e+03 -3.0964542e+01 0.0000000e+00 
1.5082924e+03 -9.3366623e-01 0.0000000e+00 
1.5083085e+03 2.9118391e+01 0.0000000e+00 
1.5083246e+03 5.9191898e+01 0.0000000e+00 
1.5500222e+03 -9.0901466e+01 0.0000000e+00 
1.5499187e+03 -6.0912556e+01 0.0000000e+00 
1.5498152e+03 -3.0902699e+01 0.0000000e+00 
1.5497115e+03 -8.7184030e-01 0.0000000e+00 
1.5496075e+03 2.9180183e+01 0.0000000e+00 
1.5495029e+03 5.9253643e+01 0.0000000e+00 
[...]
POINT_DATA 438
FIELD FieldData 5
DISPLACEMENT 3 438  float
5.8953872e+00 -4.8259318e-01 0.0000000e+00 
8.6764336e+00 -5.3715259e-01 0.0000000e+00 
1.1458762e+01 -5.6763750e-01 0.0000000e+00 
1.4249461e+01 -5.8263391e-01 0.0000000e+00 
1.7050556e+01 -5.8864129e-01 0.0000000e+00 
1.9859676e+01 -5.9222597e-01 0.0000000e+00 
5.9108224e+00 -4.4054885e+00 0.0000000e+00 
8.6844568e+00 -4.4405537e+00 0.0000000e+00 
1.1463351e+01 -4.4668736e+00 0.0000000e+00 
1.4250065e+01 -4.4840178e+00 0.0000000e+00 
1.7048882e+01 -4.4934444e+00 0.0000000e+00 
1.9860662e+01 -4.4981360e+00 0.0000000e+00 
5.8963518e+00 -8.3818493e+00 0.0000000e+00 
8.6801701e+00 -8.3944044e+00 0.0000000e+00 
1.1457583e+01 -8.4069977e+00 0.0000000e+00 
1.4240277e+01 -8.4155874e+00 0.0000000e+00 
1.7036045e+01 -8.4194899e+00 0.0000000e+00 
1.9852350e+01 -8.4204350e+00 0.0000000e+00 
5.8812633e+00 -1.2358763e+01 0.0000000e+00 
8.6656590e+00 -1.2359450e+01 0.0000000e+00 
1.1438748e+01 -1.2360640e+01 0.0000000e+00 
1.4214801e+01 -1.2360600e+01 0.0000000e+00 
1.7004726e+01 -1.2358274e+01 0.0000000e+00 
1.9819710e+01 -1.2353971e+01 0.0000000e+00 
5.8832684e+00 -1.6306532e+01 0.0000000e+00 
8.6504545e+00 -1.6306168e+01 0.0000000e+00 
1.1410671e+01 -1.6303026e+01 0.0000000e+00 
1.4174049e+01 -1.6297964e+01 0.0000000e+00 
1.6951658e+01 -1.6290787e+01 0.0000000e+00 
1.9755075e+01 -1.6281124e+01 0.0000000e+00 
5.8977976e+00 -2.0219675e+01 0.0000000e+00 
8.6395617e+00 -2.0220066e+01 0.0000000e+00 
1.1377272e+01 -2.0216305e+01 0.0000000e+00 
1.4119690e+01 -2.0209011e+01 0.0000000e+00 
1.6876448e+01 -2.0198341e+01 0.0000000e+00 
1.9657804e+01 -2.0183792e+01 0.0000000e+00 
5.9226007e+00 -2.4089474e+01 0.0000000e+00 
8.6323805e+00 -2.4091434e+01 0.0000000e+00 
1.1339838e+01 -2.4087990e+01 0.0000000e+00 
1.4052955e+01 -2.4079552e+01 0.0000000e+00 
1.6780222e+01 -2.4066130e+01 0.0000000e+00 
1.9530390e+01 -2.4047220e+01 0.0000000e+00 
5.9565549e+00 -2.7907040e+01 0.0000000e+00 
8.6280193e+00 -2.7910891e+01 0.0000000e+00 
1.1298232e+01 -2.7908051e+01 0.0000000e+00 
1.3974494e+01 -2.7898733e+01 0.0000000e+00 
1.6664444e+01 -2.7882860e+01 0.0000000e+00 
1.9375784e+01 -2.7859995e+01 0.0000000e+00 
5.9986296e+00 -3.1664356e+01 0.0000000e+00 
8.6258154e+00 -3.1670116e+01 0.0000000e+00 
1.1252230e+01 -3.1667856e+01 0.0000000e+00 
1.3884718e+01 -3.1657648e+01 0.0000000e+00 
1.6530376e+01 -3.1639412e+01 0.0000000e+00 
1.9196291e+01 -3.1612841e+01 0.0000000e+00 
6.0481191e+00 -3.5354340e+01 0.0000000e+00 
8.6253099e+00 -3.5361797e+01 0.0000000e+00 
1.1201592e+01 -3.5359791e+01 0.0000000e+00 
1.3783850e+01 -3.5348362e+01 0.0000000e+00 
1.6378939e+01 -3.5327633e+01 0.0000000e+00 
1.8993439e+01 -3.5297485e+01 0.0000000e+00 
6.1051669e+00 -3.8970688e+01 0.0000000e+00 
8.6260996e+00 -3.8979378e+01 0.0000000e+00 
1.1145584e+01 -3.8976593e+01 0.0000000e+00 
1.3671700e+01 -3.8963078e+01 0.0000000e+00 
1.6210812e+01 -3.8939598e+01 0.0000000e+00 
1.8768433e+01 -3.8905983e+01 0.0000000e+00 
6.1714201e+00 -4.2507885e+01 0.0000000e+00 
8.6261835e+00 -4.2515495e+01 0.0000000e+00 
1.1082343e+01 -4.2509743e+01 0.0000000e+00 
1.3548014e+01 -4.2493782e+01 0.0000000e+00 
1.6026762e+01 -4.2467644e+01 0.0000000e+00 
1.8522816e+01 -4.2430828e+01 0.0000000e+00 
6.2462058e+00 -4.5951893e+01 0.0000000e+00 
8.6197376e+00 -4.5956852e+01 0.0000000e+00 
1.1011340e+01 -4.5950668e+01 0.0000000e+00 
1.3413172e+01 -4.5933624e+01 0.0000000e+00 
1.5827909e+01 -4.5905518e+01 0.0000000e+00 
1.8258698e+01 -4.5865925e+01 0.0000000e+00 
6.2885127e+00 -4.9297806e+01 0.0000000e+00 
8.6079426e+00 -4.9302002e+01 0.0000000e+00 
1.0932891e+01 -4.9296566e+01 0.0000000e+00 
1.3268016e+01 -4.9279049e+01 0.0000000e+00 
1.5615389e+01 -4.9249325e+01 0.0000000e+00 
1.7978010e+01 -4.9207222e+01 0.0000000e+00 
6.3331494e+00 -5.2550625e+01 0.0000000e+00 
8.5889330e+00 -5.2554394e+01 0.0000000e+00 
1.0847172e+01 -5.2547108e+01 0.0000000e+00 
1.3112841e+01 -5.2528023e+01 0.0000000e+00 
1.5389878e+01 -5.2496323e+01 0.0000000e+00 
1.7681662e+01 -5.2451691e+01 0.0000000e+00 
6.3806024e+00 -5.5703091e+01 0.0000000e+00 
8.5666885e+00 -5.5706470e+01 0.0000000e+00 
1.0754214e+01 -5.5697845e+01 0.0000000e+00 
1.2947848e+01 -5.5676815e+01 0.0000000e+00 
1.5151718e+01 -5.5642918e+01 0.0000000e+00 
1.7369728e+01 -5.5595715e+01 0.0000000e+00 
6.4310331e+00 -5.8749363e+01 0.0000000e+00 
8.5425053e+00 -5.8752625e+01 0.0000000e+00 
1.0655345e+01 -5.8742958e+01 0.0000000e+00 
1.2773665e+01 -5.8720291e+01 0.0000000e+00 
1.4901389e+01 -5.8684334e+01 0.0000000e+00 
1.7042366e+01 -5.8634647e+01 0.0000000e+00 
6.4837556e+00 -6.1684883e+01 0.0000000e+00 
8.5167408e+00 -6.1687874e+01 0.0000000e+00 
1.0551324e+01 -6.1677311e+01 0.0000000e+00 
1.2591134e+01 -6.1653240e+01 0.0000000e+00 
1.4639654e+01 -6.1615448e+01 0.0000000e+00 
1.6700325e+01 -6.1563473e+01 0.0000000e+00 
6.5379643e+00 -6.4504990e+01 0.0000000e+00 
8.4892235e+00 -6.4507530e+01 0.0000000e+00 
1.0442556e+01 -6.4496162e+01 0.0000000e+00 
1.2400996e+01 -6.4470932e+01 0.0000000e+00 
1.4367485e+01 -6.4431564e+01 0.0000000e+00 
1.6344915e+01 -6.4377563e+01 0.0000000e+00 
6.5926394e+00 -6.7204865e+01 0.0000000e+00 
8.4596844e+00 -6.7206970e+01 0.0000000e+00 
1.0329496e+01 -6.7195175e+01 0.0000000e+00 
1.2204146e+01 -6.7169380e+01 0.0000000e+00 
1.4085967e+01 -6.7128922e+01 0.0000000e+00 
1.5977657e+01 -6.7073189e+01 0.0000000e+00 
6.6462259e+00 -6.9779411e+01 0.0000000e+00 
8.4282637e+00 -6.9781479e+01 0.0000000e+00 
1.0213586e+01 -6.9770905e+01 0.0000000e+00 
1.2001951e+01 -6.9745850e+01 0.0000000e+00 
1.3796075e+01 -6.9704865e+01 0.0000000e+00 
1.5599602e+01 -6.9647598e+01 0.0000000e+00 
6.6969671e+00 -7.2221619e+01 0.0000000e+00 
8.3986092e+00 -7.2229111e+01 0.0000000e+00 
1.0097755e+01 -7.2222687e+01 0.0000000e+00 
1.1795636e+01 -7.2198708e+01 0.0000000e+00 
1.3498200e+01 -7.2157089e+01 0.0000000e+00 
1.5210498e+01 -7.2098129e+01 0.0000000e+00 
6.7499223e+00 -7.4547020e+01 0.0000000e+00 
8.3773394e+00 -7.4557884e+01 0.0000000e+00 
9.9825268e+00 -7.4550362e+01 0.0000000e+00 
1.1585146e+01 -7.4524796e+01 0.0000000e+00 
1.3191922e+01 -7.4481422e+01 0.0000000e+00 
1.4808823e+01 -7.4420341e+01 0.0000000e+00 
6.8475747e+00 -7.6749207e+01 0.0000000e+00 
8.3610115e+00 -7.6755981e+01 0.0000000e+00 
9.8666458e+00 -7.6744156e+01 0.0000000e+00 
1.1369725e+01 -7.6715752e+01 0.0000000e+00 
1.2876806e+01 -7.6670197e+01 0.0000000e+00 
1.4393395e+01 -7.6606865e+01 0.0000000e+00 
6.9528661e+00 -7.8789246e+01 0.0000000e+00 
8.3516264e+00 -7.8799942e+01 0.0000000e+00 
9.7505074e+00 -7.8789970e+01 0.0000000e+00 
1.1149948e+01 -7.8761253e+01 0.0000000e+00 
1.2553414e+01 -7.8714531e+01 0.0000000e+00 
1.3965047e+01 -7.8649399e+01 0.0000000e+00 
7.0579739e+00 -8.0680084e+01 0.0000000e+00 
8.3458614e+00 -8.0691711e+01 0.0000000e+00 
9.6351643e+00 -8.0683342e+01 0.0000000e+00 
1.0926896e+01 -8.0655365e+01 0.0000000e+00 
1.2223046e+01 -8.0608200e+01 0.0000000e+00 
1.3526181e+01 -8.0541763e+01 0.0000000e+00 
7.1621957e+00 -8.2420135e+01 0.0000000e+00 
8.3401356e+00 -8.2431679e+01 0.0000000e+00 
9.5191145e+00 -8.2423538e+01 0.0000000e+00 
1.0700745e+01 -8.2395645e+01 0.0000000e+00 
1.1886776e+01 -8.2348007e+01 0.0000000e+00 
1.3079062e+01 -8.2280472e+01 0.0000000e+00 
7.2665310e+00 -8.4005898e+01 0.0000000e+00 
8.3335829e+00 -8.4017136e+01 0.0000000e+00 
9.4012041e+00 -8.4008682e+01 0.0000000e+00 
1.0471172e+01 -8.3980354e+01 0.0000000e+00 
1.1545198e+01 -8.3932014e+01 0.0000000e+00 
1.2624972e+01 -8.3863449e+01 0.0000000e+00 
7.3716063e+00 -8.5434250e+01 0.0000000e+00 
8.3262949e+00 -8.5445244e+01 0.0000000e+00 
9.2812319e+00 -8.5436356e+01 0.0000000e+00 
1.0238151e+01 -8.5407455e+01 0.0000000e+00 
1.1198700e+01 -8.5358345e+01 0.0000000e+00 
1.2164513e+01 -8.5288795e+01 0.0000000e+00 
7.4777546e+00 -8.6702576e+01 0.0000000e+00 
8.3185310e+00 -8.6713448e+01 0.0000000e+00 
9.1594038e+00 -8.6704216e+01 0.0000000e+00 
1.0001945e+01 -8.6674782e+01 0.0000000e+00 
1.0847680e+01 -8.6624962e+01 0.0000000e+00 
1.1698133e+01 -8.6554504e+01 0.0000000e+00 
7.5850601e+00 -8.7808746e+01 0.0000000e+00 
8.3105087e+00 -8.7819603e+01 0.0000000e+00 
9.0360155e+00 -8.7810143e+01 0.0000000e+00 
9.7629356e+00 -8.7780281e+01 0.0000000e+00 
1.0492610e+01 -8.7729851e+01 0.0000000e+00 
1.1226386e+01 -8.7658585e+01 0.0000000e+00 
7.6934333e+00 -8.8751015e+01 0.0000000e+00 
8.3023586e+00 -8.8761925e+01 0.0000000e+00 
8.9113503e+00 -8.8752312e+01 0.0000000e+00 
9.5215302e+00 -8.8722122e+01 0.0000000e+00 
1.0134022e+01 -8.8671188e+01 0.0000000e+00 
1.0749956e+01 -8.8599243e+01 0.0000000e+00 
7.8026986e+00 -8.9527954e+01 0.0000000e+00 
8.2941303e+00 -8.9538933e+01 0.0000000e+00 
8.7856445e+00 -8.9529228e+01 0.0000000e+00 
9.2781305e+00 -8.9498787e+01 0.0000000e+00 
9.7724819e+00 -8.9447449e+01 0.0000000e+00 
1.0269599e+01 -8.9374947e+01 0.0000000e+00 
7.9126577e+00 -9.0138420e+01 0.0000000e+00 
8.2858372e+00 -9.0149460e+01 0.0000000e+00 
8.6591091e+00 -9.0139687e+01 0.0000000e+00 
9.0331316e+00 -9.0109062e+01 0.0000000e+00 
9.4085712e+00 -9.0057419e+01 0.0000000e+00 
9.7860966e+00 -8.9984482e+01 0.0000000e+00 
8.0231123e+00 -9.0581520e+01 0.0000000e+00 
8.2774801e+00 -9.0592598e+01 0.0000000e+00 
8.5319376e+00 -9.0582787e+01 0.0000000e+00 
8.7869225e+00 -9.0552025e+01 0.0000000e+00 
9.0428753e+00 -9.0500153e+01 0.0000000e+00 
9.3002348e+00 -9.0426903e+01 0.0000000e+00 
8.1338711e+00 -9.0856606e+01 0.0000000e+00 
8.2690573e+00 -9.0867706e+01 0.0000000e+00 
8.4043245e+00 -9.0857864e+01 0.0000000e+00 
8.5398893e+00 -9.0827019e+01 0.0000000e+00 
8.6759720e+00 -9.0775009e+01 0.0000000e+00 
8.8127890e+00 -9.0701576e+01 0.0000000e+00 
8.2447519e+00 -9.0963295e+01 0.0000000e+00 
8.2605724e+00 -9.0974403e+01 0.0000000e+00 
8.2764606e+00 -9.0964546e+01 0.0000000e+00 
8.2924156e+00 -9.0933670e+01 0.0000000e+00 
8.3084383e+00 -9.0881607e+01 0.0000000e+00 
8.3245268e+00 -9.0808098e+01 0.0000000e+00 
8.3555784e+00 -9.0901466e+01 0.0000000e+00 
8.2520351e+00 -9.0912552e+01 0.0000000e+00 
8.1485434e+00 -9.0902702e+01 0.0000000e+00 
8.0448866e+00 -9.0871841e+01 0.0000000e+00 
7.9408469e+00 -9.0819817e+01 0.0000000e+00 
7.8362079e+00 -9.0746361e+01 0.0000000e+00 
8.4661760e+00 -9.0671242e+01 0.0000000e+00 
8.2434559e+00 -9.0682297e+01 0.0000000e+00 
8.0207701e+00 -9.0672462e+01 0.0000000e+00 
7.7976861e+00 -9.0641670e+01 0.0000000e+00 
7.5737700e+00 -9.0589767e+01 0.0000000e+00 
7.3485899e+00 -9.0516479e+01 0.0000000e+00 
8.5763750e+00 -9.0273010e+01 0.0000000e+00 
8.2348490e+00 -9.0284019e+01 0.0000000e+00 
7.8933392e+00 -9.0274223e+01 0.0000000e+00 
7.5511985e+00 -9.0243553e+01 0.0000000e+00 
7.2077775e+00 -9.0191856e+01 0.0000000e+00 
6.8624272e+00 -9.0118851e+01 0.0000000e+00 
8.6860027e+00 -8.9707405e+01 0.0000000e+00 
8.2262259e+00 -8.9718361e+01 0.0000000e+00 
7.7664495e+00 -8.9708618e+01 0.0000000e+00 
7.3058085e+00 -8.9678123e+01 0.0000000e+00 
6.8434381e+00 -8.9626717e+01 0.0000000e+00 
6.3784747e+00 -8.9554123e+01 0.0000000e+00 
8.7948904e+00 -8.8975349e+01 0.0000000e+00 
8.2176046e+00 -8.8986221e+01 0.0000000e+00 
7.6403012e+00 -8.8976562e+01 0.0000000e+00 
7.0619006e+00 -8.8946289e+01 0.0000000e+00 
6.4813228e+00 -8.8895256e+01 0.0000000e+00 
5.8974872e+00 -8.8823189e+01 0.0000000e+00 
8.9028664e+00 -8.8077972e+01 0.0000000e+00 
8.2089968e+00 -8.8088768e+01 0.0000000e+00 
7.5150933e+00 -8.8079193e+01 0.0000000e+00 
6.8198595e+00 -8.8049210e+01 0.0000000e+00 
6.1219997e+00 -8.7998634e+01 0.0000000e+00 
5.4202180e+00 -8.7927216e+01 0.0000000e+00 
9.0097599e+00 -8.7016708e+01 0.0000000e+00 
8.2004185e+00 -8.7027397e+01 0.0000000e+00 
7.3910255e+00 -8.7017944e+01 0.0000000e+00 
6.5800700e+00 -8.6988289e+01 0.0000000e+00 
5.7660394e+00 -8.6938263e+01 0.0000000e+00 
4.9474225e+00 -8.6867607e+01 0.0000000e+00 
9.1154013e+00 -8.5793228e+01 0.0000000e+00 
8.1918831e+00 -8.5803802e+01 0.0000000e+00 
7.2682977e+00 -8.5794479e+01 0.0000000e+00 
6.3429160e+00 -8.5765205e+01 0.0000000e+00 
5.4140115e+00 -8.5715820e+01 0.0000000e+00 
4.4798555e+00 -8.5646042e+01 0.0000000e+00 
9.2196198e+00 -8.4409447e+01 0.0000000e+00 
8.1834068e+00 -8.4419891e+01 0.0000000e+00 
7.1471090e+00 -8.4410728e+01 0.0000000e+00 
6.1087832e+00 -8.4381889e+01 0.0000000e+00 
5.0664854e+00 -8.4333221e+01 0.0000000e+00 
4.0182719e+00 -8.4264450e+01 0.0000000e+00 
9.3222437e+00 -8.2867569e+01 0.0000000e+00 
8.1750021e+00 -8.2877861e+01 0.0000000e+00 
7.0276589e+00 -8.2868874e+01 0.0000000e+00 
5.8780551e+00 -8.2840523e+01 0.0000000e+00 
4.7240310e+00 -8.2792664e+01 0.0000000e+00 
3.5634263e+00 -8.2725014e+01 0.0000000e+00 
9.4231033e+00 -8.1170021e+01 0.0000000e+00 
8.1666842e+00 -8.1180161e+01 0.0000000e+00 
6.9101477e+00 -8.1171356e+01 0.0000000e+00 
5.6511173e+00 -8.1143555e+01 0.0000000e+00 
4.3872180e+00 -8.1096581e+01 0.0000000e+00 
3.1160738e+00 -8.1030174e+01 0.0000000e+00 
9.5220261e+00 -7.9319511e+01 0.0000000e+00 
8.1584673e+00 -7.9329475e+01 0.0000000e+00 
6.7947736e+00 -7.9320885e+01 0.0000000e+00 
5.4283543e+00 -7.9293671e+01 0.0000000e+00 
4.0566168e+00 -7.9247681e+01 0.0000000e+00 
2.6769698e+00 -7.9182632e+01 0.0000000e+00 
9.6188421e+00 -7.7318993e+01 0.0000000e+00 
8.1503649e+00 -7.7328773e+01 0.0000000e+00 
6.6817365e+00 -7.7320412e+01 0.0000000e+00 
5.2101498e+00 -7.7293846e+01 0.0000000e+00 
3.7327964e+00 -7.7248917e+01 0.0000000e+00 
2.2468688e+00 -7.7185356e+01 0.0000000e+00 
9.7133799e+00 -7.5171684e+01 0.0000000e+00 
8.1423912e+00 -7.5181267e+01 0.0000000e+00 
6.5712361e+00 -7.5173157e+01 0.0000000e+00 
4.9968896e+00 -7.5147293e+01 0.0000000e+00 
3.4163275e+00 -7.5103508e+01 0.0000000e+00 
1.8265263e+00 -7.5041542e+01 0.0000000e+00 
9.8054686e+00 -7.2881058e+01 0.0000000e+00 
8.1345615e+00 -7.2890427e+01 0.0000000e+00 
6.4634714e+00 -7.2882584e+01 0.0000000e+00 
4.7889576e+00 -7.2857468e+01 0.0000000e+00 
3.1077800e+00 -7.2814926e+01 0.0000000e+00 
1.4166979e+00 -7.2754677e+01 0.0000000e+00 
9.8949356e+00 -7.0450844e+01 0.0000000e+00 
8.1268883e+00 -7.0459984e+01 0.0000000e+00 
6.3586416e+00 -7.0452423e+01 0.0000000e+00 
4.5867391e+00 -7.0428116e+01 0.0000000e+00 
2.8077235e+00 -7.0386894e+01 0.0000000e+00 
1.0181390e+00 -7.0328484e+01 0.0000000e+00 
9.9816122e+00 -6.7885025e+01 0.0000000e+00 
8.1193876e+00 -6.7893921e+01 0.0000000e+00 
6.2569466e+00 -6.7886673e+01 0.0000000e+00 
4.3906178e+00 -6.7863220e+01 0.0000000e+00 
2.5167286e+00 -6.7823402e+01 0.0000000e+00 
6.3160545e-01 -6.7766953e+01 0.0000000e+00 
1.0065326e+01 -6.5187843e+01 0.0000000e+00 
8.1120720e+00 -6.5196480e+01 0.0000000e+00 
6.1585865e+00 -6.5189560e+01 0.0000000e+00 
4.2009797e+00 -6.5167023e+01 0.0000000e+00 
2.2353649e+00 -6.5128700e+01 0.0000000e+00 
2.5785267e-01 -6.5074326e+01 0.0000000e+00 
1.0145909e+01 -6.2363800e+01 0.0000000e+00 
8.1049604e+00 -6.2372177e+01 0.0000000e+00 
6.0637617e+00 -6.2365608e+01 0.0000000e+00 
4.0182090e+00 -6.2344036e+01 0.0000000e+00 
1.9642013e+00 -6.2307293e+01 0.0000000e+00 
-1.0236520e-01 -6.2255116e+01 0.0000000e+00 
1.0223196e+01 -5.9417660e+01 0.0000000e+00 
8.0980711e+00 -5.9425762e+01 0.0000000e+00 
5.9726744e+00 -5.9419567e+01 0.0000000e+00 
3.8426905e+00 -5.9399014e+01 0.0000000e+00 
1.7038049e+00 -5.9363937e+01 0.0000000e+00 
-4.4829699e-01 -5.9314075e+01 0.0000000e+00 
1.0297025e+01 -5.6354439e+01 0.0000000e+00 
8.0914268e+00 -5.6362255e+01 0.0000000e+00 
5.8855295e+00 -5.6356461e+01 0.0000000e+00 
3.6748078e+00 -5.6336983e+01 0.0000000e+00 
1.4547393e+00 -5.6303661e+01 0.0000000e+00 
-7.7919728e-01 -5.6256229e+01 0.0000000e+00 
1.0367242e+01 -5.3179405e+01 0.0000000e+00 
8.0850544e+00 -5.3186935e+01 0.0000000e+00 
5.8025327e+00 -5.3181561e+01 0.0000000e+00 
3.5149443e+00 -5.3163216e+01 0.0000000e+00 
1.2175642e+00 -5.3131733e+01 0.0000000e+00 
-1.0943296e+00 -5.3086849e+01 0.0000000e+00 
1.0433699e+01 -4.9898102e+01 0.0000000e+00 
8.0789852e+00 -4.9905331e+01 0.0000000e+00 
5.7238913e+00 -4.9900394e+01 0.0000000e+00 
3.3634820e+00 -4.9883228e+01 0.0000000e+00 
9.9283350e-01 -4.9853664e+01 0.0000000e+00 
-1.3929702e+00 -4.9811443e+01 0.0000000e+00 
1.0496248e+01 -4.6516319e+01 0.0000000e+00 
8.0732460e+00 -4.6523209e+01 0.0000000e+00 
5.6498089e+00 -4.6518715e+01 0.0000000e+00 
3.2208009e+00 -4.6502769e+01 0.0000000e+00 
7.8109753e-01 -4.6475204e+01 0.0000000e+00 
-1.6744070e+00 -4.6435757e+01 0.0000000e+00 
1.0554729e+01 -4.3040092e+01 0.0000000e+00 
8.0678453e+00 -4.3046577e+01 0.0000000e+00 
5.5804768e+00 -4.3042496e+01 0.0000000e+00 
3.0872781e+00 -4.3027790e+01 0.0000000e+00 
5.8291125e-01 -4.3002296e+01 0.0000000e+00 
-1.9379309e+00 -4.2965736e+01 0.0000000e+00 
1.0608931e+01 -3.9475708e+01 0.0000000e+00 
8.0627394e+00 -3.9481663e+01 0.0000000e+00 
5.5160542e+00 -3.9477909e+01 0.0000000e+00 
2.9632905e+00 -3.9464428e+01 0.0000000e+00 
3.9885271e-01 -3.9441063e+01 0.0000000e+00 
-2.1828060e+00 -3.9407505e+01 0.0000000e+00 
1.0658533e+01 -3.5829681e+01 0.0000000e+00 
8.0577888e+00 -3.5834873e+01 0.0000000e+00 
5.4566469e+00 -3.5831291e+01 0.0000000e+00 
2.8492184e+00 -3.5818985e+01 0.0000000e+00 
2.2956012e-01 -3.5797802e+01 0.0000000e+00 
-2.4082079e+00 -3.5767380e+01 0.0000000e+00 
1.0703008e+01 -3.2108719e+01 0.0000000e+00 
8.0526848e+00 -3.2112812e+01 0.0000000e+00 
5.4022737e+00 -3.2109169e+01 0.0000000e+00 
2.7454579e+00 -3.2097942e+01 0.0000000e+00 
7.5791240e-02 -3.2078991e+01 0.0000000e+00 
-2.6131139e+00 -3.2051868e+01 0.0000000e+00 
1.0741515e+01 -2.8319714e+01 0.0000000e+00 
8.0468969e+00 -2.8322302e+01 0.0000000e+00 
5.3528457e+00 -2.8318333e+01 0.0000000e+00 
2.6524386e+00 -2.8308075e+01 0.0000000e+00 
-6.1496880e-02 -2.8291428e+01 0.0000000e+00 
-2.7961392e+00 -2.8267836e+01 0.0000000e+00 
1.0772849e+01 -2.4469753e+01 0.0000000e+00 
8.0396643e+00 -2.4470528e+01 0.0000000e+00 
5.3081670e+00 -2.4466047e+01 0.0000000e+00 
2.5706449e+00 -2.4456730e+01 0.0000000e+00 
-1.8106911e-01 -2.4442518e+01 0.0000000e+00 
-2.9553316e+00 -2.4422777e+01 0.0000000e+00 
1.0795560e+01 -2.0566259e+01 0.0000000e+00 
8.0300903e+00 -2.0565283e+01 0.0000000e+00 
5.2680068e+00 -2.0560484e+01 0.0000000e+00 
2.5006397e+00 -2.0552334e+01 0.0000000e+00 
-2.8137884e-01 -2.0540863e+01 0.0000000e+00 
-3.0879943e+00 -2.0525421e+01 0.0000000e+00 
1.0808261e+01 -1.6617050e+01 0.0000000e+00 
8.0174227e+00 -1.6615366e+01 0.0000000e+00 
5.2323265e+00 -1.6611248e+01 0.0000000e+00 
2.4432094e+00 -1.6605289e+01 0.0000000e+00 
-3.6068466e-01 -1.6597271e+01 0.0000000e+00 
-3.1907947e+00 -1.6586700e+01 0.0000000e+00 
1.0809924e+01 -1.2630531e+01 0.0000000e+00 
8.0014915e+00 -1.2630414e+01 0.0000000e+00 
5.2023945e+00 -1.2630497e+01 0.0000000e+00 
2.3996372e+00 -1.2629357e+01 0.0000000e+00 
-4.1755494e-01 -1.2626098e+01 0.0000000e+00 
-3.2606864e+00 -1.2620948e+01 0.0000000e+00 
1.0798068e+01 -8.6128626e+00 0.0000000e+00 
7.9869733e+00 -8.6243029e+00 0.0000000e+00 
5.1818409e+00 -8.6354637e+00 0.0000000e+00 
2.3716035e+00 -8.6428528e+00 0.0000000e+00 
-4.5196724e-01 -8.6459751e+00 0.0000000e+00 
-3.2973878e+00 -8.6463318e+00 0.0000000e+00 
1.0788363e+01 -4.5892992e+00 0.0000000e+00 
7.9829574e+00 -4.6239381e+00 0.0000000e+00 
5.1744533e+00 -4.6500049e+00 0.0000000e+00 
2.3601213e+00 -4.6674886e+00 0.0000000e+00 
-4.6664336e-01 -4.6771646e+00 0.0000000e+00 
-3.3076708e+00 -4.6818204e+00 0.0000000e+00 
1.0817326e+01 -6.0095090e-01 0.0000000e+00 
7.9916868e+00 -6.6806895e-01 0.0000000e+00 
5.1793299e+00 -7.0562917e-01 0.0000000e+00 
2.3605604e+00 -7.2388738e-01 0.0000000e+00 
-4.6876448e-01 -7.3092616e-01 0.0000000e+00 
-3.3070617e+00 -7.3463744e-01 0.0000000e+00 
REACTION 3 438  float
1.6225385e-09 2.6193447e-10 0.0000000e+00 
1.5206751e-09 -1.4551915e-11 0.0000000e+00 
-3.1868694e-09 -1.1350494e-09 0.0000000e+00 
-2.2719178e-09 -2.5502231e-09 0.0000000e+00 
1.2923920e-09 1.0186341e-09 0.0000000e+00 
-6.2101435e-10 -2.1464075e-10 0.0000000e+00 
1.8771971e-09 1.3096724e-10 0.0000000e+00 
-1.0040822e-08 3.6379788e-09 0.0000000e+00 
7.2759576e-09 -1.4260877e-09 0.0000000e+00 
-2.2700988e-09 -1.6007107e-10 0.0000000e+00 
5.8644218e-09 -3.8235157e-09 0.0000000e+00 
-1.9836079e-09 3.2250682e-09 0.0000000e+00 
1.7171260e-09 -1.2805685e-08 0.0000000e+00 
1.3387762e-09 8.3091436e-09 0.0000000e+00 