# vtk DataFile Version 4.0
vtk output
ASCII
DATASET UNSTRUCTURED_GRID
POINTS 73 float
1.9859676e+01 1.4940778e+02 0.0000000e+00 
6.1527328e+01 1.4550186e+02 0.0000000e+00 
1.0318568e+02 1.4157956e+02 0.0000000e+00 
1.4481972e+02 1.3764603e+02 0.0000000e+00 
1.8642174e+02 1.3371887e+02 0.0000000e+00 
2.2799113e+02 1.2981621e+02 0.0000000e+00 
2.6953040e+02 1.2595278e+02 0.0000000e+00 
3.1104245e+02 1.2214001e+02 0.0000000e+00 
3.5252963e+02 1.1838716e+02 0.0000000e+00 
3.9399344e+02 1.1470251e+02 0.0000000e+00 
4.3543509e+02 1.1109402e+02 0.0000000e+00 
4.7685614e+02 1.0756917e+02 0.0000000e+00 
5.1825867e+02 1.0413407e+02 0.0000000e+00 
5.5964465e+02 1.0079278e+02 0.0000000e+00 
6.0101501e+02 9.7548309e+01 0.0000000e+00 
6.4236975e+02 9.4404282e+01 0.0000000e+00 
6.8370905e+02 9.1365349e+01 0.0000000e+00 
7.2503363e+02 8.8436531e+01 0.0000000e+00 
7.6634491e+02 8.5622437e+01 0.0000000e+00 
8.0764435e+02 8.2926811e+01 0.0000000e+00 
8.4893292e+02 8.0352402e+01 0.0000000e+00 
8.9021051e+02 7.7901871e+01 0.0000000e+00 
9.3147546e+02 7.5579659e+01 0.0000000e+00 
9.7272675e+02 7.3393135e+01 0.0000000e+00 
1.0139650e+03 7.1350601e+01 0.0000000e+00 
1.0551929e+03 6.9458237e+01 0.0000000e+00 
1.0964124e+03 6.7719528e+01 0.0000000e+00 
1.1376250e+03 6.6136551e+01 0.0000000e+00 
1.1788312e+03 6.4711205e+01 0.0000000e+00 
1.2200315e+03 6.3445496e+01 0.0000000e+00 
1.2612264e+03 6.2341412e+01 0.0000000e+00 
1.3024166e+03 6.1400757e+01 0.0000000e+00 
1.3436029e+03 6.0625053e+01 0.0000000e+00 
1.3847861e+03 6.0015522e+01 0.0000000e+00 
1.4259669e+03 5.9573093e+01 0.0000000e+00 
1.4671461e+03 5.9298428e+01 0.0000000e+00 
1.5083246e+03 5.9191898e+01 0.0000000e+00 
1.5495029e+03 5.9253643e+01 0.0000000e+00 
1.5906819e+03 5.9483521e+01 0.0000000e+00 
1.6318624e+03 5.9881145e+01 0.0000000e+00 
1.6730452e+03 6.0445877e+01 0.0000000e+00 
1.7142308e+03 6.1176807e+01 0.0000000e+00 
1.7554202e+03 6.2072784e+01 0.0000000e+00 
1.7966141e+03 6.3132389e+01 0.0000000e+00 
1.8378132e+03 6.4353958e+01 0.0000000e+00 
1.8790183e+03 6.5735550e+01 0.0000000e+00 
1.9202301e+03 6.7274986e+01 0.0000000e+00 
1.9614495e+03 6.8969826e+01 0.0000000e+00 
2.0026770e+03 7.0817368e+01 0.0000000e+00 
2.0439136e+03 7.2814644e+01 0.0000000e+00 
2.0851599e+03 7.4958458e+01 0.0000000e+00 
2.1264167e+03 7.7245323e+01 0.0000000e+00 
2.1676848e+03 7.9671516e+01 0.0000000e+00 
2.2089648e+03 8.2233047e+01 0.0000000e+00 
2.2502578e+03 8.4925674e+01 0.0000000e+00 
2.2915642e+03 8.7744888e+01 0.0000000e+00 
2.3328850e+03 9.0685921e+01 0.0000000e+00 
2.3742207e+03 9.3743767e+01 0.0000000e+00 
2.4155723e+03 9.6913155e+01 0.0000000e+00 
2.4569404e+03 1.0018855e+02 0.0000000e+00 
2.4983257e+03 1.0356424e+02 0.0000000e+00 
2.5397288e+03 1.0703426e+02 0.0000000e+00 
2.5811506e+03 1.1059249e+02 0.0000000e+00 
2.6225918e+03 1.1423262e+02 0.0000000e+00 
2.6640535e+03 1.1794813e+02 0.0000000e+00 
2.7055371e+03 1.2173216e+02 0.0000000e+00 
2.7470447e+03 1.2557722e+02 0.0000000e+00 
2.7885786e+03 1.2947458e+02 0.0000000e+00 
2.8301426e+03 1.3341330e+02 0.0000000e+00 
2.8717393e+03 1.3737906e+02 0.0000000e+00 
2.9133694e+03 1.4135367e+02 0.0000000e+00 
2.9550256e+03 1.4531818e+02 0.0000000e+00 
2.9966929e+03 1.4926537e+02 0.0000000e+00 

CELLS 73 146
1 0
1 1
1 2
1 3
1 4
1 5
1 6
1 7
1 8
1 9
1 10
1 11
1 12
1 13
1 14
1 15
1 16
1 17
1 18
1 19
1 20
1 21
1 22
1 23
1 24
1 25
1 26
1 27
1 28
1 29
1 30
1 31
1 32
1 33
1 34
1 35
1 36
1 37
1 38
1 39
1 40
1 41
1 42
1 43
1 44
1 45
1 46
1 47
1 48
1 49
1 50
1 51
1 52
1 53
1 54
1 55
1 56
1 57
1 58
1 59
1 60
1 61
1 62
1 63
1 64
1 65
1 66
1 67
1 68
1 69
1 70
1 71
1 72

CELL_TYPES 73
1
1
1
1
1
1
1
1
1
1
1
1
1
1
1
1
1
1
1
1
1
1
1
1
1
1
1
1
1
1
1
1
1
1
1
1
1
1
1
1
1
1
1
1
1
1
1
1
1
1
1
1
1
1
1
1
1
1
1
1
1
1
1
1
1
1
1
1
1
1
1
1
1
POINT_DATA 73
FIELD FieldData 5
DISPLACEMENT 3 73  float
1.9859676e+01 -5.9222597e-01 0.0000000e+00 
1.9860662e+01 -4.4981360e+00 0.0000000e+00 
1.9852350e+01 -8.4204350e+00 0.0000000e+00 
1.9819710e+01 -1.2353971e+01 0.0000000e+00 
1.9755075e+01 -1.6281124e+01 0.0000000e+00 
1.9657804e+01 -2.0183792e+01 0.0000000e+00 
1.9530390e+01 -2.4047220e+01 0.0000000e+00 
1.9375784e+01 -2.7859995e+01 0.0000000e+00 
1.9196291e+01 -3.1612841e+01 0.0000000e+00 
1.8993439e+01 -3.5297485e+01 0.0000000e+00 
1.8768433e+01 -3.8905983e+01 0.0000000e+00 
1.8522816e+01 -4.2430828e+01 0.0000000e+00 
1.8258698e+01 -4.5865925e+01 0.0000000e+00 
1.7978010e+01 -4.9207222e+01 0.0000000e+00 
1.7681662e+01 -5.2451691e+01 0.0000000e+00 
1.7369728e+01 -5.5595715e+01 0.0000000e+00 
1.7042366e+01 -5.8634647e+01 0.0000000e+00 
1.6700325e+01 -6.1563473e+01 0.0000000e+00 
1.6344915e+01 -6.4377563e+01 0.0000000e+00 
1.5977657e+01 -6.7073189e+01 0.0000000e+00 
1.5599602e+01 -6.9647598e+01 0.0000000e+00 
1.5210498e+01 -7.2098129e+01 0.0000000e+00 
1.4808823e+01 -7.4420341e+01 0.0000000e+00 
1.4393395e+01 -7.6606865e+01 0.0000000e+00 
1.3965047e+01 -7.8649399e+01 0.0000000e+00 
1.3526181e+01 -8.0541763e+01 0.0000000e+00 
1.3079062e+01 -8.2280472e+01 0.0000000e+00 
1.2624972e+01 -8.3863449e+01 0.0000000e+00 
1.2164513e+01 -8.5288795e+01 0.0000000e+00 
1.1698133e+01 -8.6554504e+01 0.0000000e+00 
1.1226386e+01 -8.7658585e+01 0.0000000e+00 
1.0749956e+01 -8.8599243e+01 0.0000000e+00 
1.0269599e+01 -8.9374947e+01 0.0000000e+00 
9.7860966e+00 -8.9984482e+01 0.0000000e+00 
9.3002348e+00 -9.0426903e+01 0.0000000e+00 
8.8127890e+00 -9.0701576e+01 0.0000000e+00 
8.3245268e+00 -9.0808098e+01 0.0000000e+00 
7.8362079e+00 -9.0746361e+01 0.0000000e+00 
7.3485899e+00 -9.0516479e+01 0.0000000e+00 
6.8624272e+00 -9.0118851e+01 0.0000000e+00 
6.3784747e+00 -8.9554123e+01 0.0000000e+00 
5.8974872e+00 -8.8823189e+01 0.0000000e+00 
5.4202180e+00 -8.7927216e+01 0.0000000e+00 
4.9474225e+00 -8.6867607e+01 0.0000000e+00 
4.4798555e+00 -8.5646042e+01 0.0000000e+00 
4.0182719e+00 -8.4264450e+01 0.0000000e+00 
3.5634263e+00 -8.2725014e+01 0.0000000e+00 
3.1160738e+00 -8.1030174e+01 0.0000000e+00 
2.6769698e+00 -7.9182632e+01 0.0000000e+00 
2.2468688e+00 -7.7185356e+01 0.0000000e+00 
1.8265263e+00 -7.5041542e+01 0.0000000e+00 
1.4166979e+00 -7.2754677e+01 0.0000000e+00 
1.0181390e+00 -7.0328484e+01 0.0000000e+00 
6.3160545e-01 -6.7766953e+01 0.0000000e+00 
2.5785267e-01 -6.5074326e+01 0.0000000e+00 
-1.0236520e-01 -6.2255116e+01 0.0000000e+00 
-4.4829699e-01 -5.9314075e+01 0.0000000e+00 
-7.7919728e-01 -5.6256229e+01 0.0000000e+00 
-1.0943296e+00 -5.3086849e+01 0.0000000e+00 
-1.3929702e+00 -4.9811443e+01 0.0000000e+00 
-1.6744070e+00 -4.6435757e+01 0.0000000e+00 
-1.9379309e+00 -4.2965736e+01 0.0000000e+00 
-2.1828060e+00 -3.9407505e+01 0.0000000e+00 
-2.4082079e+00 -3.5767380e+01 0.0000000e+00 
-2.6131139e+00 -3.2051868e+01 0.0000000e+00 
-2.7961392e+00 -2.8267836e+01 0.0000000e+00 
-2.9553316e+00 -2.4422777e+01 0.0000000e+00 
-3.0879943e+00 -2.0525421e+01 0.0000000e+00 
-3.1907947e+00 -1.6586700e+01 0.0000000e+00 
-3.2606864e+00 -1.2620948e+01 0.0000000e+00 
-3.2973878e+00 -8.6463318e+00 0.0000000e+00 
-3.3076708e+00 -4.6818204e+00 0.0000000e+00 
-3.3070617e+00 -7.3463744e-01 0.0000000e+00 
REACTION 3 73  float
-6.2101435e-10 -2.1464075e-10 0.0000000e+00 
-1.9836079e-09 3.2250682e-09 0.0000000e+00 
1.1750672e-09 3.2475782e-09 0.0000000e+00 
-2.0081643e-09 5.3325948e-09 0.0000000e+00 
3.5506673e-09 9.9325916e-09 0.0000000e+00 
-1.1787051e-09 9.5587893e-09 0.0000000e+00 
4.8603397e-09 8.9676178e-09 0.0000000e+00 
6.4610504e-09 -5.3250915e-09 0.0000000e+00 
7.5669959e-10 4.0663508e-09 0.0000000e+00 
-1.7462298e-10 1.3274075e-08 0.0000000e+00 
8.2945917e-09 -1.0280928e-08 0.0000000e+00 
-1.1059456e-09 1.9172148e-09 0.0000000e+00 
-2.5611371e-09 2.1512278e-08 0.0000000e+00 
6.5774657e-09 -8.6583896e-10 0.0000000e+00 
-1.0477379e-09 3.6243364e-09 0.0000000e+00 
-8.7311491e-09 3.0759111e-09 0.0000000e+00 
-2.5611371e-09 1.4078978e-09 0.0000000e+00 
-1.3795216e-08 2.8176146e-09 0.0000000e+00 
-1.0477379e-09 4.6633431e-08 0.0000000e+00 
-2.0372681e-09 1.8216269e-08 0.0000000e+00 
4.0745363e-09 -8.5265128e-09 0.0000000e+00 
-2.5029294e-09 -2.2240783e-08 0.0000000e+00 
-1.1641532e-09 -1.9999788e-08 0.0000000e+00 
-1.0186341e-08 5.1004463e-09 0.0000000e+00 
-1.7462298e-10 8.4201019e-09 0.0000000e+00 
2.1536835e-09 -1.1355951e-08 0.0000000e+00 
-1.7462298e-10 -2.1422238e-08 0.0000000e+00 
5.7625584e-09 1.0550139e-08 0.0000000e+00 
-1.2572855e-08 2.0287189e-08 0.0000000e+00 
-6.8685040e-09 4.6284185e-08 0.0000000e+00 
5.4715201e-09 -9.7297743e-09 0.0000000e+00 
9.7206794e-09 3.8344297e-09 0.0000000e+00 
6.8685040e-09 -5.1004463e-09 0.0000000e+00 
-3.0267984e-09 -2.0907464e-08 0.0000000e+00 
-2.0954758e-09 -1.0077201e-09 0.0000000e+00 
-1.8626451e-09 1.1768861e-09 0.0000000e+00 
-2.4447218e-09 -4.6657078e-09 0.0000000e+00 
-4.5401976e-09 -8.7784429e-09 0.0000000e+00 
5.1804818e-09 1.7118509e-08 0.0000000e+00 
7.5669959e-10 3.2647222e-08 0.0000000e+00 
1.3620593e-08 -2.1413143e-08 0.0000000e+00 
6.3446350e-09 -2.1209416e-08 0.0000000e+00 
-9.0221874e-09 1.5206751e-09 0.0000000e+00 
4.5984052e-09 4.3582986e-09 0.0000000e+00 
1.0943040e-08 -1.1481461e-08 0.0000000e+00 
1.8626451e-09 -6.1229002e-08 0.0000000e+00 
1.5716068e-09 -6.2049367e-08 0.0000000e+00 
-5.8207661e-09 3.5550329e-08 0.0000000e+00 
-5.7043508e-09 3.9794031e-08 0.0000000e+00 
6.4028427e-10 -3.2145181e-08 0.0000000e+00 
-9.3132257e-09 4.5234628e-08 0.0000000e+00 
-3.3760443e-09 5.0114977e-08 0.0000000e+00 
8.7311491e-09 7.1395334e-09 0.0000000e+00 
-6.8102963e-09 -1.4786565e-08 0.0000000e+00 
-1.1757948e-08 2.1864253e-08 0.0000000e+00 
-1.1350494e-08 2.0454536e-08 0.0000000e+00 
1.1641532e-08 -8.9366949e-09 0.0000000e+00 
1.1641532e-10 -3.9726729e-09 0.0000000e+00 
1.2805685e-09 1.8935680e-09 0.0000000e+00 
-6.0535967e-09 8.9858077e-10 0.0000000e+00 
2.7939677e-09 1.1899829e-08 0.0000000e+00 
3.5506673e-09 -2.4825567e-08 0.0000000e+00 
1.6298145e-09 1.0637450e-08 0.0000000e+00 
-4.3655746e-10 -5.6606950e-09 0.0000000e+00 
2.6193447e-10 -3.8526196e-09 0.0000000e+00 
5.5879354e-09 2.4629117e-09 0.0000000e+00 
2.8812792e-09 4.5765773e-09 0.0000000e+00 
3.1723175e-09 -2.4338078e-09 0.0000000e+00 
-7.2759576e-10 2.2228051e-09 0.0000000e+00 
1.8335413e-09 3.8198777e-10 0.0000000e+00 
5.6752469e-10 -7.5742719e-09 0.0000000e+00 
-3.4970071e-10 8.4764906e-10 0.0000000e+00 
-3.7016434e-10 4.0563464e-10 0.0000000e+00 
PK2_STRESS_VECTOR 6 73  float
-1.0189465e+00 -4.3731117e+00 -8.2590240e-01 0.0000000e+00 0.0000000e+00 0.0000000e+00 
-4.9667482e+00 -5.2861814e+00 -2.6586702e+00 0.0000000e+00 0.0000000e+00 0.0000000e+00 
-1.6999189e+01 -4.9737263e+00 -5.7702260e+00 0.0000000e+00 0.0000000e+00 0.0000000e+00 
-3.5987514e+01 -4.4956994e+00 -7.4353514e+00 0.0000000e+00 0.0000000e+00 0.0000000e+00 
-5.7612125e+01 -4.4204092e+00 -7.6238661e+00 0.0000000e+00 0.0000000e+00 0.0000000e+00 
-7.8752991e+01 -4.6241541e+00 -7.1127648e+00 0.0000000e+00 0.0000000e+00 0.0000000e+00 
-9.8234711e+01 -4.9324036e+00 -6.4748955e+00 0.0000000e+00 0.0000000e+00 0.0000000e+00 
-1.1606112e+02 -5.2410026e+00 -5.9605207e+00 0.0000000e+00 0.0000000e+00 0.0000000e+00 
-1.3264549e+02 -5.5058455e+00 -5.6072369e+00 0.0000000e+00 0.0000000e+00 0.0000000e+00 
-1.4832909e+02 -5.6979599e+00 -5.3293929e+00 0.0000000e+00 0.0000000e+00 0.0000000e+00 
-1.6312538e+02 -5.8126955e+00 -4.9868517e+00 0.0000000e+00 0.0000000e+00 0.0000000e+00 
-1.7676982e+02 -5.9168725e+00 -4.5267506e+00 0.0000000e+00 0.0000000e+00 0.0000000e+00 
-1.8913898e+02 -6.0894742e+00 -4.0977831e+00 0.0000000e+00 0.0000000e+00 0.0000000e+00 
-2.0057738e+02 -6.2844081e+00 -3.8779705e+00 0.0000000e+00 0.0000000e+00 0.0000000e+00 
-2.1162430e+02 -6.4078465e+00 -3.8249664e+00 0.0000000e+00 0.0000000e+00 0.0000000e+00 
-2.2249455e+02 -6.4690428e+00 -3.7531567e+00 0.0000000e+00 0.0000000e+00 0.0000000e+00 
-2.3298206e+02 -6.5224791e+00 -3.5572321e+00 0.0000000e+00 0.0000000e+00 0.0000000e+00 
-2.4274042e+02 -6.5893612e+00 -3.2459505e+00 0.0000000e+00 0.0000000e+00 0.0000000e+00 
-2.5153995e+02 -6.6828561e+00 -2.8915279e+00 0.0000000e+00 0.0000000e+00 0.0000000e+00 
-2.5945581e+02 -6.8401098e+00 -2.6334972e+00 0.0000000e+00 0.0000000e+00 0.0000000e+00 
-2.6701913e+02 -7.0696354e+00 -2.6470540e+00 0.0000000e+00 0.0000000e+00 0.0000000e+00 
-2.7501941e+02 -7.2613521e+00 -2.9357927e+00 0.0000000e+00 0.0000000e+00 0.0000000e+00 
-2.8376102e+02 -7.2877064e+00 -3.1627808e+00 0.0000000e+00 0.0000000e+00 0.0000000e+00 
-2.9255743e+02 -7.2468085e+00 -2.9737604e+00 0.0000000e+00 0.0000000e+00 0.0000000e+00 
-3.0034283e+02 -7.3265853e+00 -2.4574690e+00 0.0000000e+00 0.0000000e+00 0.0000000e+00 
-3.0668869e+02 -7.5016446e+00 -1.9726751e+00 0.0000000e+00 0.0000000e+00 0.0000000e+00 
-3.1193253e+02 -7.6496272e+00 -1.6900676e+00 0.0000000e+00 0.0000000e+00 0.0000000e+00 
-3.1656641e+02 -7.7311015e+00 -1.5452039e+00 0.0000000e+00 0.0000000e+00 0.0000000e+00 
-3.2082971e+02 -7.7739549e+00 -1.4294894e+00 0.0000000e+00 0.0000000e+00 0.0000000e+00 
-3.2473053e+02 -7.8068080e+00 -1.2915621e+00 0.0000000e+00 0.0000000e+00 0.0000000e+00 
-3.2819696e+02 -7.8392563e+00 -1.1265690e+00 0.0000000e+00 0.0000000e+00 0.0000000e+00 
-3.3116647e+02 -7.8708987e+00 -9.4511330e-01 0.0000000e+00 0.0000000e+00 0.0000000e+00 
-3.3360657e+02 -7.8991790e+00 -7.5737762e-01 0.0000000e+00 0.0000000e+00 0.0000000e+00 
-3.3550778e+02 -7.9221215e+00 -5.6916767e-01 0.0000000e+00 0.0000000e+00 0.0000000e+00 
-3.3687189e+02 -7.9387546e+00 -3.8265035e-01 0.0000000e+00 0.0000000e+00 0.0000000e+00 
-3.3770413e+02 -7.9488025e+00 -1.9803242e-01 0.0000000e+00 0.0000000e+00 0.0000000e+00 
-3.3800919e+02 -7.9523115e+00 -1.4815249e-02 0.0000000e+00 0.0000000e+00 0.0000000e+00 
-3.3779031e+02 -7.9494119e+00 1.6757004e-01 0.0000000e+00 0.0000000e+00 0.0000000e+00 
-3.3704926e+02 -7.9402189e+00 3.4954441e-01 0.0000000e+00 0.0000000e+00 0.0000000e+00 
-3.3578683e+02 -7.9248071e+00 5.3136003e-01 0.0000000e+00 0.0000000e+00 0.0000000e+00 
-3.3400327e+02 -7.9032173e+00 7.1314335e-01 0.0000000e+00 0.0000000e+00 0.0000000e+00 
-3.3169861e+02 -7.8754673e+00 8.9494449e-01 0.0000000e+00 0.0000000e+00 0.0000000e+00 
-3.2887277e+02 -7.8415627e+00 1.0767741e+00 0.0000000e+00 0.0000000e+00 0.0000000e+00 
-3.2552563e+02 -7.8015041e+00 1.2586263e+00 0.0000000e+00 0.0000000e+00 0.0000000e+00 
-3.2165714e+02 -7.7552891e+00 1.4404913e+00 0.0000000e+00 0.0000000e+00 0.0000000e+00 
-3.1726727e+02 -7.7029138e+00 1.6223611e+00 0.0000000e+00 0.0000000e+00 0.0000000e+00 
-3.1235596e+02 -7.6443763e+00 1.8042319e+00 0.0000000e+00 0.0000000e+00 0.0000000e+00 
-3.0692319e+02 -7.5796728e+00 1.9861053e+00 0.0000000e+00 0.0000000e+00 0.0000000e+00 
-3.0096890e+02 -7.5088000e+00 2.1679881e+00 0.0000000e+00 0.0000000e+00 0.0000000e+00 
-2.9449301e+02 -7.4317551e+00 2.3498907e+00 0.0000000e+00 0.0000000e+00 0.0000000e+00 
-2.8749545e+02 -7.3485351e+00 2.5318232e+00 0.0000000e+00 0.0000000e+00 0.0000000e+00 
-2.7997604e+02 -7.2591419e+00 2.7137845e+00 0.0000000e+00 0.0000000e+00 0.0000000e+00 
-2.7193478e+02 -7.1635880e+00 2.8957419e+00 0.0000000e+00 0.0000000e+00 0.0000000e+00 
-2.6337173e+02 -7.0619035e+00 3.0775971e+00 0.0000000e+00 0.0000000e+00 0.0000000e+00 
-2.5428748e+02 -6.9541507e+00 3.2591352e+00 0.0000000e+00 0.0000000e+00 0.0000000e+00 
-2.4468341e+02 -6.8404322e+00 3.4399698e+00 0.0000000e+00 0.0000000e+00 0.0000000e+00 
-2.3456236e+02 -6.7208924e+00 3.6195099e+00 0.0000000e+00 0.0000000e+00 0.0000000e+00 
-2.2392905e+02 -6.5956855e+00 3.7970219e+00 0.0000000e+00 0.0000000e+00 0.0000000e+00 
-2.1279010e+02 -6.4648767e+00 3.9719095e+00 0.0000000e+00 0.0000000e+00 0.0000000e+00 
-2.0115268e+02 -6.3282266e+00 4.1444187e+00 0.0000000e+00 0.0000000e+00 0.0000000e+00 
-1.8902013e+02 -6.1848116e+00 4.3170085e+00 0.0000000e+00 0.0000000e+00 0.0000000e+00 
-1.7638242e+02 -6.0324712e+00 4.4965773e+00 0.0000000e+00 0.0000000e+00 0.0000000e+00 
-1.6319934e+02 -5.8671942e+00 4.6974025e+00 0.0000000e+00 0.0000000e+00 0.0000000e+00 
-1.4937514e+02 -5.6826916e+00 4.9439974e+00 0.0000000e+00 0.0000000e+00 0.0000000e+00 
-1.3472781e+02 -5.4705057e+00 5.2721024e+00 0.0000000e+00 0.0000000e+00 0.0000000e+00 
-1.1896278e+02 -5.2213831e+00 5.7244611e+00 0.0000000e+00 0.0000000e+00 0.0000000e+00 
-1.0167778e+02 -4.9326353e+00 6.3327208e+00 0.0000000e+00 0.0000000e+00 0.0000000e+00 
-8.2471184e+01 -4.6308141e+00 7.0629573e+00 0.0000000e+00 0.0000000e+00 0.0000000e+00 
-6.1292782e+01 -4.4076104e+00 7.7008982e+00 0.0000000e+00 0.0000000e+00 0.0000000e+00 
-3.9165699e+01 -4.4426765e+00 7.7089696e+00 0.0000000e+00 0.0000000e+00 0.0000000e+00 
-1.9115566e+01 -4.9417391e+00 6.2312732e+00 0.0000000e+00 0.0000000e+00 0.0000000e+00 
-5.8695416e+00 -5.4072032e+00 3.0447583e+00 0.0000000e+00 0.0000000e+00 0.0000000e+00 
-1.3592376e+00 -4.5338092e+00 1.0573939e+00 0.0000000e+00 0.0000000e+00 0.0000000e+00 
EQUIVALENT_PLASTIC_STRAIN 1 73  float
0.0000000e+00
0.0000000e+00
0.0000000e+00
0.0000000e+00
0.0000000e+00
0.0000000e+00
0.0000000e+00
0.0000000e+00
0.0000000e+00
0.0000000e+00
0.0000000e+00
0.0000000e+00
0.0000000e+00
0.0000000e+00
0.0000000e+00
0.0000000e+00
0.0000000e+00
0.0000000e+00
0.0000000e+00
0.0000000e+00
0.0000000e+00
0.0000000e+00
0.0000000e+00
0.0000000e+00
0.0000000e+00
0.0000000e+00
0.0000000e+00
0.0000000e+00
0.0000000e+00
0.0000000e+00
0.0000000e+00
0.0000000e+00
0.0000000e+00
0.0000000e+00
0.0000000e+00
0.0000000e+00
0.0000000e+00
0.0000000e+00
0.0000000e+00
0.0000000e+00
0.0000000e+00
0.0000000e+00
0.0000000e+00
0.0000000e+00
0.0000000e+00
0.0000000e+00
0.0000000e+00
0.0000000e+00
0.0000000e+00
0.0000000e+00
0.0000000e+00
0.0000000e+00
0.0000000e+00
0.0000000e+00
0.0000000e+00
0.0000000e+00
0.0000000e+00
0.0000000e+00
0.0000000e+00
0.0000000e+00
0.0000000e+00
0.0000000e+00
0.0000000e+00
0.0000000e+00
0.0000000e+00
0.0000000e+00
0.0000000e+00
0.0000000e+00
0.0000000e+00
0.0000000e+00
0.0000000e+00
0.0000000e+00
0.0000000e+00
PLASTIC_STRAIN_VECTOR 4 73  float
0.0000000e+00 0.0000000e+00 0.0000000e+00 0.0000000e+00 
0.0000000e+00 0.0000000e+00 0.0000000e+00 0.0000000e+00 
0.0000000e+00 0.0000000e+00 0.0000000e+00 0.0000000e+00 
0.0000000e+00 0.0000000e+00 0.0000000e+00 0.0000000e+00 
0.0000000e+00 0.0000000e+00 0.0000000e+00 0.0000000e+00 
0.0000000e+00 0.0000000e+00 0.0000000e+00 0.0000000e+00 
0.0000000e+00 0.0000000e+00 0.0000000e+00 0.0000000e+00 
0.0000000e+00 0.0000000e+00 0.0000000e+00 0.0000000e+00 
0.0000000e+00 0.0000000e+00 0.0000000e+00 0.0000000e+00 
0.0000000e+00 0.0000000e+00 0.0000000e+00 0.0000000e+00 
0.0000000e+00 0.0000000e+00 0.0000000e+00 0.0000000e+00 
0.0000000e+00 0.0000000e+00 0.0000000e+00 0.0000000e+00 
0.0000000e+00 0.0000000e+00 0.0000000e+00 0.0000000e+00 
0.0000000e+00 0.0000000e+00 0.0000000e+00 0.0000000e+00 
0.0000000e+00 0.0000000e+00 0.0000000e+00 0.0000000e+00 
0.0000000e+00 0.0000000e+00 0.0000000e+00 0.0000000e+00 
0.0000000e+00 0.0000000e+00 0.0000000e+00 0.0000000e+00 
0.0000000e+00 0.0000000e+00 0.0000000e+00 0.0000000e+00 
0.0000000e+00 0.0000000e+00 0.0000000e+00 0.0000000e+00 
0.0000000e+00 0.0000000e+00 0.0000000e+00 0.0000000e+00 
0.0000000e+00 0.0000000e+00 0.0000000e+00 0.0000000e+00 
0.0000000e+00 0.0000000e+00 0.0000000e+00 0.0000000e+00 
0.0000000e+00 0.0000000e+00 0.0000000e+00 0.0000000e+00 
0.0000000e+00 0.0000000e+00 0.0000000e+00 0.0000000e+00 
0.0000000e+00 0.0000000e+00 0.0000000e+00 0.0000000e+00 
0.0000000e+00 0.0000000e+00 0.0000000e+00 0.0000000e+00 
0.0000000e+00 0.0000000e+00 0.0000000e+00 0.0000000e+00 
0.0000000e+00 0.0000000e+00 0.0000000e+00 0.0000000e+00 
0.0000000e+00 0.0000000e+00 0.0000000e+00 0.0000000e+00 
0.0000000e+00 0.0000000e+00 0.0000000e+00 0.0000000e+00 
0.0000000e+00 0.0000000e+00 0.0000000e+00 0.0000000e+00 
0.0000000e+00 0.0000000e+00 0.0000000e+00 0.0000000e+00 
0.0000000e+00 0.0000000e+00 0.0000000e+00 0.0000000e+00 
0.0000000e+00 0.0000000e+00 0.0000000e+00 0.0000000e+00 
0.0000000e+00 0.0000000e+00 0.0000000e+00 0.0000000e+00 
0.0000000e+00 0.0000000e+00 0.0000000e+00 0.0000000e+00 
0.0000000e+00 0.0000000e+00 0.0000000e+00 0.0000000e+00 
0.0000000e+00 0.0000000e+00 0.0000000e+00 0.0000000e+00 
0.0000000e+00 0.0000000e+00 0.0000000e+00 0.0000000e+00 
0.0000000e+00 0.0000000e+00 0.0000000e+00 0.0000000e+00 
0.0000000e+00 0.0000000e+00 0.0000000e+00 0.0000000e+00 
0.0000000e+00 0.0000000e+00 0.0000000e+00 0.0000000e+00 
0.0000000e+00 0.0000000e+00 0.0000000e+00 0.0000000e+00 
0.0000000e+00 0.0000000e+00 0.0000000e+00 0.0000000e+00 
0.0000000e+00 0.0000000e+00 0.0000000e+00 0.0000000e+00 
0.0000000e+00 0.0000000e+00 0.0000000e+00 0.0000000e+00 
0.0000000e+00 0.0000000e+00 0.0000000e+00 0.0000000e+00 
0.0000000e+00 0.0000000e+00 0.0000000e+00 0.0000000e+00 
0.0000000e+00 0.0000000e+00 0.0000000e+00 0.0000000e+00 
0.0000000e+00 0.0000000e+00 0.0000000e+00 0.0000000e+00 
0.0000000e+00 0.0000000e+00 0.0000000e+00 0.0000000e+00 
0.0000000e+00 0.0000000e+00 0.0000000e+00 0.0000000e+00 
0.0000000e+00 0.0000000e+00 0.0000000e+00 0.0000000e+00 
0.0000000e+00 0.0000000e+00 0.0000000e+00 0.0000000e+00 
0.0000000e+00 0.0000000e+00 0.0000000e+00 0.0000000e+00 
0.0000000e+00 0.0000000e+00 0.0000000e+00 0.0000000e+00 
0.0000000e+00 0.0000000e+00 0.0000000e+00 0.0000000e+00 
0.0000000e+00 0.0000000e+00 0.0000000e+00 0.0000000e+00 
0.0000000e+00 0.0000000e+00 0.0000000e+00 0.0000000e+00 
0.0000000e+00 0.0000000e+00 0.0000000e+00 0.0000000e+00 
0.0000000e+00 0.0000000e+00 0.0000000e+00 0.0000000e+00 
0.0000000e+00 0.0000000e+00 0.0000000e+00 0.0000000e+00 
0.0000000e+00 0.0000000e+00 0.0000000e+00 0.0000000e+00 
0.0000000e+00 0.0000000e+00 0.0000000e+00 0.0000000e+00 
0.0000000e+00 0.0000000e+00 0.0000000e+00 0.0000000e+00 
0.0000000e+00 0.0000000e+00 0.0000000e+00 0.0000000e+00 
0.0000000e+00 0.0000000e+00 0.0000000e+00 0.0000000e+00 
0.0000000e+00 0.0000000e+00 0.0000000e+00 0.0000000e+00 
0.0000000e+00 0.0000000e+00 0.0000000e+00 0.0000000e+00 
0.0000000e+00 0.0000000e+00 0.0000000e+00 0.0000000e+00 
0.0000000e+00 0.0000000e+00 0.0000000e+00 0.0000000e+00 
0.0000000e+00 0.0000000e+00 0.0000000e+00 0.0000000e+00 
0.0000000e+00 0.0000000e+00 0.0000000e+00 0.0000000e+00 
CELL_DATA 73
FIELD FieldData 3
